! Touchstone file exported from HFSS 2025.2.0
!        File:           D:/lfl/Documents/Ansoft/06082026_005pf.aedt
!        Generated:      05:45:41 PM Jul 18, 2026
!        Design:         cpw_7mm1
!        Project:        06082026_005pf
!        Setup:          Setup1
!        Solution:       Sweep
!
# GHz S MA R 50.000000
! Terminal data exported
! Port[1] = 1
! Port[2] = 2
3.95                           0.999634361517777 -14.4282787029788 0.0270396611459871 -104.474515444067 0.0270396611453448 -104.474515444067 0.999634361516814 -14.5207521853701 
! Gamma         0                0                0                0                
! Port Impedance         50               0                50               0                
3.96975                        0.999626033921193 -14.5125085683429 0.0273454521593096 -104.559131348675 0.027345452158647 -104.559131348672 0.999626034052557 -14.6057517231685 
! Gamma         0                0                0                0                
! Port Impedance         50               0                50               0                
3.9895                         0.999617496692496 -14.597017005783 0.0276554542682568 -104.644029288034 0.0276554542675738 -104.644029288029 0.999617496947835 -14.6910369111967 
! Gamma         0                0                0                0                
! Port Impedance         50               0                50               0                
4.00925                        0.999608743518607 -14.6818091505109 0.027969752760877 -104.729214464475 0.0279697527601735 -104.729214464467 0.999608743889728 -14.7766130152893 
! Gamma         0                0                0                0                
! Port Impedance         50               0                50               0                
4.029                          0.99959976786204 -14.7668902637347 0.0282884351120374 -104.814692207926 0.0282884351113136 -104.814692207916 0.999599768340906 -14.862485430495 
! Gamma         0                0                0                0                
! Port Impedance         50               0                50               0                
4.04875                        0.999590562951625 -14.852265736674 0.0286115910536538 -104.900467979977 0.0286115910529095 -104.900467979965 0.999590563530363 -14.9486596851945 
! Gamma         0                0                0                0                
! Port Impedance         50               0                50               0                
4.0685                         0.999581121772796 -14.9379410947289 0.0289393126476227 -104.986547378105 0.028939312646858 -104.986547378091 0.999581122443701 -15.0351414453765 
! Gamma         0                0                0                0                
! Port Impedance         50               0                50               0                
4.08825                        0.999571437057419 -15.0239220018106 0.0292716943615795 -105.072936140058 0.0292716943607943 -105.072936140042 0.999571437812952 -15.1219365190796 
! Gamma         0                0                0                0                
! Port Impedance         50               0                50               0                
4.108                          0.999561501273119 -15.1102142648409 0.0296088331476087 -105.159640148414 0.029608833146803 -105.159640148397 0.999561502105916 -15.2090508610074 
! Gamma         0                0                0                0                
! Port Impedance         50               0                50               0                
4.12775                        0.999551306612102 -15.1968238384281 0.0299508285240425 -105.246665435316 0.0299508285232163 -105.246665435298 0.999551307514972 -15.2964905773243 
! Gamma         0                0                0                0                
! Port Impedance         50               0                50               0                
4.1475                         0.999540844979427 -15.2837568297275 0.0302977826604895 -105.334018187395 0.0302977826596429 -105.334018187375 0.999540845945359 -15.3842619306409 
! Gamma         0                0                0                0                
! Port Impedance         50               0                50               0                
4.16725                        0.999530107980705 -15.3710195034948 0.0306498004662427 -105.421704750887 0.0306498004653757 -105.421704750867 0.999530109002868 -15.4723713451977 
! Gamma         0                0                0                0                
! Port Impedance         50               0                50               0                
4.187                          0.999519086909193 -15.4586182873423 0.0310069896822236 -105.509731636962 0.0310069896813362 -105.509731636941 0.999519087980938 -15.5608254122558 
! Gamma         0                0                0                0                
! Port Impedance         50               0                50               0                
4.20675                        0.999507772732243 -15.5465597772063 0.0313694609766296 -105.598105527255 0.0313694609757218 -105.598105527232 0.99950777384711 -15.6496308957052 
! Gamma         0                0                0                0                
! Port Impedance         50               0                50               0                
4.2265                         0.999496156077081 -15.6348507430366 0.0317373280444578 -105.686833279631 0.0317373280435297 -105.686833279608 0.999496157228796 -15.7387947379005 
! Gamma         0                0                0                0                
! Port Impedance         50               0                50               0                
4.24625                        0.999484227215868 -15.7234981347178 0.0321107077110905 -105.775921934184 0.0321107077101421 -105.775921934161 0.999484228398347 -15.8283240657347 
! Gamma         0                0                0                0                
! Port Impedance         50               0                50               0                
4.266                          0.99947197605    -15.8125090882348 0.0324897200401359 -105.865378719483 0.0324897200391673 -105.865378719459 0.999471977257355 -15.918226196963 
! Gamma         0                0                0                0                
! Port Impedance         50               0                50               0                
4.28575                        0.999459392093625 -15.9018909320924 0.0328744884457289 -105.955211059068 0.0328744884447401 -105.955211059044 0.999459393320162 -16.0085086467881 
! Gamma         0                0                0                0                
! Port Impedance         50               0                50               0                
4.3055                         0.999446464456296 -15.9916511940038 0.0332651398095088 -106.045426578231 0.0332651398084998 -106.045426578207 0.999446465696515 -16.0991791347204 
! Gamma         0                0                0                0                
! Port Impedance         50               0                50               0                
4.32525                        0.999433181824742 -16.0817976078586 0.0336618046025007 -106.13603311107 0.0336618046014716 -106.136033111046 0.999433183073344 -16.1902455917258 
! Gamma         0                0                0                0                
! Port Impedance         50               0                50               0                
4.345                          0.999419532443686 -16.1723381209862 0.0340646170121433 -106.227038707849 0.0340646170110942 -106.227038707825 0.999419533695572 -16.2817161676761 
! Gamma         0                0                0                0                
! Port Impedance         50               0                50               0                
4.36475                        0.999405504095669 -16.2632809017279 0.0344737150747158 -106.318451642663 0.0344737150736468 -106.318451642639 0.999405505345942 -16.3735992391161 
! Gamma         0                0                0                0                
! Port Impedance         50               0                50               0                
4.3845                         0.999391084079799 -16.3546343473337 0.0348892408134348 -106.410280421442 0.0348892408123459 -106.410280421418 0.999391085323766 -16.4659034173642 
! Gamma         0                0                0                0                
! Port Impedance         50               0                50               0                
4.40425                        0.999376259189389 -16.4464070922005 0.0353113403825029 -106.502533790289 0.0353113403813943 -106.502533790266 0.999376260422559 -16.5586375569625 
! Gamma         0                0                0                0                
! Port Impedance         50               0                50               0                
4.424                          0.999361015688386 -16.5386080164675 0.0357401642174133 -106.595220744195 0.0357401642162851 -106.595220744172 0.999361016906476 -16.6518107644949 
! Gamma         0                0                0                0                
! Port Impedance         50               0                50               0                
4.44375                        0.999345339286552 -16.6312462549896 0.036175867191825 -106.688350536118 0.0361758671906772 -106.688350536095 0.999345340485485 -16.7454324077906 
! Gamma         0                0                0                0                
! Port Impedance         50               0                50               0                
4.4635                         0.999329215113282 -16.7243312067057 0.0366186087813477 -106.78193268648 0.0366186087801805 -106.781932686457 0.999329216289188 -16.8395121255355 
! Gamma         0                0                0                0                
! Port Impedance         50               0                50               0                
4.48325                        0.999312627690018 -16.8178725444236 0.0370685532345919 -106.875976993073 0.0370685532334054 -106.875976993051 0.999312628839236 -16.9340598373088 
! Gamma         0                0                0                0                
! Port Impedance         50               0                50               0                
4.503                          0.999295560901129 -16.9118802250433 0.0375258697518625 -106.970493541419 0.0375258697506568 -106.970493541398 0.999295562020205 -17.0290857540712 
! Gamma         0                0                0                0                
! Port Impedance         50               0                50               0                
4.52275                        0.999277997963196 -17.006364500242 0.0379907326718951 -107.065492715589 0.0379907326706703 -107.065492715568 0.999277999048887 -17.1246003891249 
! Gamma         0                0                0                0                
! Port Impedance         50               0                50               0                
4.5425                         0.999259921392582 -17.1013359276437 0.0384633216670606 -107.160985209518 0.0384633216658169 -107.160985209498 0.999259922441853 -17.2206145695729 
! Gamma         0                0                0                0                
! Port Impedance         50               0                50               0                
4.56225                        0.999241312971187 -17.1968053825014 0.0389438219474871 -107.256982038839 0.0389438219462246 -107.25698203882 0.999241313981212 -17.3171394483027 
! Gamma         0                0                0                0                
! Port Impedance         50               0                50               0                
4.582                          0.999222153710264 -17.2927840699178 0.0394324244745763 -107.353494553263 0.0394324244732952 -107.353494553245 0.999222154678428 -17.4141865165235 
! Gamma         0                0                0                0                
! Port Impedance         50               0                50               0                
4.60175                        0.999202423812185 -17.3892835376353 0.0399293261844226 -107.450534449529 0.039929326183123 -107.450534449511 0.99920242473608 -17.5117676168864 
! Gamma         0                0                0                0                
! Port Impedance         50               0                50               0                
4.6215                         0.999182102630009 -17.486315689424 0.0404347302216712 -107.548113784971 0.0404347302203534 -107.548113784955 0.999182103507436 -17.60989495722  
! Gamma         0                0                0                0                
! Port Impedance         50               0                50               0                
4.64125                        0.99916116862472 -17.5838927991035 0.0409488461843884 -107.64624499172 0.0409488461830524 -107.646244991705 0.999161169453687 -17.7085811249146 
! Gamma         0                0                0                0                
! Port Impedance         50               0                50               0                
4.661                          0.999139599319976 -17.6820275252315 0.0414718903805503 -107.744940891581 0.0414718903791964 -107.744940891567 0.999139600098699 -17.8078391019917 
! Gamma         0                0                0                0                
! Port Impedance         50               0                50               0                
4.68075                        0.999117371254205 -17.7807329264972 0.0420040860967978 -107.844214711628 0.0420040860954262 -107.844214711614 0.999117371981106 -17.9076822808965 
! Gamma         0                0                0                0                
! Port Impedance         50               0                50               0                
4.7005                         0.999094459929877 -17.8800224778597 0.0425456638801439 -107.944080100548 0.0425456638787547 -107.944080100536 0.999094460603582 -18.0081244810544 
! Gamma         0                0                0                0                
! Port Impedance         50               0                50               0                
4.72025                        0.999070839759749 -17.9799100874727 0.0430968618333653 -108.044551145791 0.0430968618319588 -108.04455114578 0.999070840379087 -18.1091799662354 
! Gamma         0                0                0                0                
! Port Impedance         50               0                50               0                
4.74                           0.999046484009887 -18.0804101144415 0.0436579259248578 -108.145642391552 0.0436579259234341 -108.145642391542 0.99904648457389 -18.2108634627716 
! Gamma         0                0                0                0                
! Port Impedance         50               0                50               0                
4.75975                        0.999021364739255 -18.1815373874599 0.0442291103137851 -108.247368857654 0.0442291103123445 -108.247368857645 0.999021365247153 -18.3131901786785 
! Gamma         0                0                0                0                
! Port Impedance         50               0                50               0                
4.7795                         0.998995452735603 -18.283307224378 0.0448106776914062 -108.349746059366 0.044810677689949 -108.349746059358 0.998995453186826 -18.4161758237308 
! Gamma         0                0                0                0                
! Port Impedance         50               0                50               0                
4.79925                        0.998968717447437 -18.3857354527562 0.0454028996395238 -108.452790028229 0.0454028996380502 -108.452790028222 0.998968717841608 -18.5198366305512 
! Gamma         0                0                0                0                
! Port Impedance         50               0                50               0                
4.819                          0.998941126911758 -18.4888384314628 0.0460060570070621 -108.556517333929 0.0460060570055722 -108.556517333923 0.998941127248697 -18.6241893767697 
! Gamma         0                0                0                0                
! Port Impedance         50               0                50               0                
4.83875                        0.99891264767731 -18.5926330733785 0.0466204403058465 -108.660945107302 0.0466204403043407 -108.660945107297 0.998912647957024 -18.7292514083189 
! Gamma         0                0                0                0                
! Port Impedance         50               0                50               0                
4.8585                         0.998883244722978 -18.6971368692738 0.0472463501267354 -108.766091064519 0.0472463501252139 -108.766091064515 0.998883244945663 -18.8350406639334 
! Gamma         0                0                0                0                
! Port Impedance         50               0                50               0                
4.87825                        0.99885288137102 -18.8023679129304 0.0478840975773283 -108.871973532535 0.0478840975757914 -108.871973532532 0.998852881537057 -18.9415757009255 
! Gamma         0                0                0                0                
! Port Impedance         50               0                50               0                
4.898                          0.998821519194745 -18.9083449275828 0.048534004742563 -108.97861147588 0.0485340047410109 -108.978611475878 0.998821519304696 -19.0488757223169 
! Gamma         0                0                0                0                
! Port Impedance         50               0                50               0                
4.91775                        0.998789117920228 -19.0150872937625 0.0491964051696044 -109.086024524858 0.0491964051680375 -109.086024524857 0.998789117974832 -19.1569606054084 
! Gamma         0                0                0                0                
! Port Impedance         50               0                50               0                
4.9375                         0.998755635321635 -19.1226150786303 0.0498716443785271 -109.194233005269 0.0498716443769457 -109.194233005269 0.998755635321804 -19.2658509318788 
! Gamma         0                0                0                0                
! Port Impedance         50               0                50               0                
4.95725                        0.99872102710967 -19.2309490668923 0.050560080400399 -109.303257969726 0.0505600803988033 -109.303257969727 0.998721027056488 -19.3755680195078 
! Gamma         0                0                0                0                
! Port Impedance         50               0                50               0                
4.977                          0.998685246812646 -19.3401107933978 0.0512620843444903 -109.413121230681 0.0512620843428807 -109.413121230683 0.99868524670736 -19.4861339556271 
! Gamma         0                0                0                0                
! Port Impedance         50               0                50               0                
4.99675                        0.998648245649599 -19.4501225775292 0.0519780409964551 -109.523845395263 0.0519780409948319 -109.523845395266 0.998648245493619 -19.5975716324085 
! Gamma         0                0                0                0                
! Port Impedance         50               0                50               0                
5.0165                         0.998609972394868 -19.5610075594964 0.0527083494494688 -109.635453902048 0.0527083494478324 -109.635453902052 0.998609972189756 -19.70990478411  
! Gamma         0                0                0                0                
! Port Impedance         50               0                50               0                
5.03625                        0.998570373233454 -19.6727897386632 0.0534534237704487 -109.747971059886 0.0534534237687993 -109.747971059891 0.998570372980926 -19.823158026405 
! Gamma         0                0                0                0                
! Port Impedance         50               0                50               0                
5.056                          0.998529391606469 -19.7854940140361 0.0542136937036439 -109.861422088926 0.0542136937019819 -109.861422088931 0.998529391308383 -19.9373568979336 
! Gamma         0                0                0                0                
! Port Impedance         50               0                50               0                
5.07575                        0.99848696804588 -19.8991462270606 0.0549896054140521 -109.975833163966 0.0549896054123778 -109.975833163972 0.998486967704235 -20.0525279042213 
! Gamma         0                0                0                0                
! Port Impedance         50               0                50               0                
5.0955                         0.99844303999771 -20.0137732068797 0.0557816222733053 -110.091231460313 0.0557816222716192 -110.091231460321 0.998443039614637 -20.1686985641263 
! Gamma         0                0                0                0                
! Port Impedance         50               0                50               0                
5.11525                        0.99839754163278 -20.1294028182198 0.0565902256908678 -110.207645202296 0.0565902256891702 -110.207645202304 0.998397541210536 -20.2858974589836 
! Gamma         0                0                0                0                
! Port Impedance         50               0                50               0                
5.135                          0.998350403643976 -20.2460640120836 0.0574159159936095 -110.325103714622 0.0574159159919008 -110.325103714631 0.998350403184938 -20.4041542846323 
! Gamma         0                0                0                0                
! Port Impedance         50               0                50               0                
5.15475                        0.998301553028955 -20.3637868794443 0.0582592133570542 -110.443637476784 0.0582592133553348 -110.443637476793 0.998301552535612 -20.5234999065226 
! Gamma         0                0                0                0                
! Port Impedance         50               0                50               0                
5.1745                         0.998250912857095 -20.4826027081484 0.0591206587918614 -110.563278180708 0.0591206587901316 -110.563278180718 0.998250912332042 -20.6439664181189 
! Gamma         0                0                0                0                
! Port Impedance         50               0                50               0                
5.19425                        0.998198402019379 -20.6025440432534 0.0600008151893807 -110.684058791892 0.0600008151876411 -110.684058791902 0.998198401465306 -20.7655872028287 
! Gamma         0                0                0                0                
! Port Impedance         50               0                50               0                
5.214                          0.998143934959785 -20.7236447510435 0.0609002684304265 -110.80601361426 0.0609002684286775 -110.806013614271 0.99814393437947 -20.8883969997091 
! Gamma         0                0                0                0                
! Port Impedance         50               0                50               0                
5.23375                        0.998087421386626 -20.8459400869868 0.061819628561751 -110.929178359027 0.0618196285599929 -110.929178359039 0.998087420782929 -21.0124319732201 
! Gamma         0                0                0                0                
! Port Impedance         50               0                50               0                
5.2535                         0.99802876596212 -20.969466767919 0.062759531045062 -111.053590217829 0.0627595310432953 -111.053590217841 0.998028765337969 -21.1377297873187 
! Gamma         0                0                0                0                
! Port Impedance         50               0                50               0                
5.27325                        0.997967867968318 -21.0942630487633 0.063720638083827 -111.179287940466 0.0637206380820522 -111.179287940478 0.997967867326704 -21.2643296842104 
! Gamma         0                0                0                0                
! Port Impedance         50               0                50               0                
5.293                          0.997904620947334 -21.2203688041196 0.0647036400335418 -111.306311917568 0.0647036400317593 -111.306311917581 0.997904620291296 -21.3922725681029 
! Gamma         0                0                0                0                
! Port Impedance         50               0                50               0                
5.31275                        0.997838912313604 -21.3478256150883 0.0657092569016152 -111.434704268577 0.0657092568998256 -111.434704268591 0.997838911646223 -21.5216010943348 
! Gamma         0                0                0                0                
! Port Impedance         50               0                50               0                
5.3325                         0.997770622935707 -21.4766768617217 0.0667382399435458 -111.564508935425 0.0667382399417494 -111.564508935439 0.997770622260092 -21.6523597642849 
! Gamma         0                0                0                0                
! Port Impedance         50               0                50               0                
5.35225                        0.997699626684992 -21.6069678215323 0.0677913733626313 -111.695771782353 0.0677913733608287 -111.695771782367 0.99769962600427 -21.784595026502 
! Gamma         0                0                0                0                
! Port Impedance         50               0                50               0                
5.372                          0.997625789948016 -21.7387457745236 0.0688694761210836 -111.828540702343 0.0688694761192753 -111.828540702357 0.997625789265317 -21.918355384536 
! Gamma         0                0                0                0                
! Port Impedance         50               0                50               0                
5.39175                        0.997548971099459 -21.8720601152523 0.0699734038711011 -111.962865730676 0.0699734038692877 -111.96286573069 0.997548970417906 -22.0536915119896 
! Gamma         0                0                0                0                
! Port Impedance         50               0                50               0                
5.4115                         0.997469019931857 -22.0069624724731 0.0711040510152113 -112.098799166176 0.0711040510133932 -112.09879916619 0.997469019254552 -22.1906563753616 
! Gamma         0                0                0                0                
! Port Impedance         50               0                50               0                
5.43125                        0.997385777038106 -22.1435068369704 0.0722623529060179 -112.236395700752 0.0722623529041957 -112.236395700766 0.997385776368113 -22.3293053652994 
! Gamma         0                0                0                0                
! Port Impedance         50               0                50               0                
5.451                          0.997299073142246 -22.2817496982344 0.0734492881964064 -112.37571255791 0.0734492881945807 -112.375712557924 0.99729907248258 -22.4696964369387 
! Gamma         0                0                0                0                
! Port Impedance         50               0                50               0                
5.47075                        0.997208728373586 -22.4217501907013 0.0746658813522604 -112.516809640951 0.0746658813504317 -112.516809640965 0.997208727727195 -22.6118902600698 
! Gamma         0                0                0                0                
! Port Impedance         50               0                50               0                
5.4905                         0.997114551478656 -22.563570250343 0.0759132053408513 -112.659749691672 0.0759132053390202 -112.659749691686 0.997114550848406 -22.7559503799382 
! Gamma         0                0                0                0                
! Port Impedance         50               0                50               0                
5.51025                        0.997016338964908 -22.7072747824683 0.0771923845092885 -112.804598460425 0.0771923845074555 -112.804598460439 0.997016338353564 -22.9019433895652 
! Gamma         0                0                0                0                
! Port Impedance         50               0                50               0                
5.53                           0.996913874169377 -22.852931841677 0.0785045976687629 -112.9514248885  0.0785045976669286 -112.951424888514 0.996913873579585 -23.0499391145583 
! Gamma         0                0                0                0                
! Port Impedance         50               0                50               0                
5.54975                        0.996806926244782 -23.000612825004 0.0798510814018155 -113.100301303882 0.0798510813999806 -113.100301303896 0.996806925679049 -23.2000108114756 
! Gamma         0                0                0                0                
! Port Impedance         50               0                50               0                