! Touchstone file exported from HFSS 2025.2.0
!        File:           D:/lfl/Documents/Ansoft/06082026_005pf.aedt
!        Generated:      05:31:11 PM Jul 18, 2026
!        Design:         cpw_7mm1
!        Project:        06082026_005pf
!        Setup:          Setup1
!        Solution:       Sweep
!
# GHz S MA R 50.000000
! Terminal data exported
! Port[1] = 1
! Port[2] = 2
3.95                           0.999909029263853 -7.36567034673711 0.0134882614311303 -100.918218207598 0.0134882614313438 -100.918218207598 0.999909029263944 -14.4707660684188 
! Gamma         0                0                0                0                
! Port Impedance         50               0                50               0                
3.96975                        0.999907027869451 -7.40561749638375 0.0136356416859727 -100.980023982924 0.0136356416861578 -100.980023982908 0.999907024436712 -14.5544284231066 
! Gamma         0                0                0                0                
! Port Impedance         50               0                50               0                
3.9895                         0.999904978422054 -7.44563363253046 0.0137849410668568 -101.041990871025 0.0137849410670136 -101.041990870993 0.999904971730599 -14.6383441555745 
! Gamma         0                0                0                0                
! Port Impedance         50               0                50               0                
4.00925                        0.999902879546783 -7.48571993033007 0.0139361964360427 -101.104121663521 0.0139361964361713 -101.104121663476 0.999902869769642 -14.7225176701089 
! Gamma         0                0                0                0                
! Port Impedance         50               0                50               0                
4.029                          0.999900729822486 -7.52587759164596 0.0140894455466118 -101.166419215984 0.0140894455467123 -101.166419215925 0.999900717131518 -14.8069534722095 
! Gamma         0                0                0                0                
! Port Impedance         50               0                50               0                
4.04875                        0.999898527779933 -7.56610784585044 0.0142447270694544 -101.228886449846 0.014244727069527 -101.228886449776 0.999898512345739 -14.8916561716241 
! Gamma         0                0                0                0                
! Port Impedance         50               0                50               0                
4.0685                         0.999896271899927 -7.60641195065195 0.0144020806212371 -101.291526354393 0.014402080621282 -101.291526354312 0.999896253891767 -14.9766304854937 
! Gamma         0                0                0                0                
! Port Impedance         50               0                50               0                
4.08825                        0.999893960611336 -7.64679119295227 0.0145615467933909 -101.35434198882 0.0145615467934082 -101.354341988729 0.999893940197041 -15.0618812416126 
! Gamma         0                0                0                0                
! Port Impedance         50               0                50               0                
4.108                          0.99989159228903 -7.68724688973508 0.0147231671821643 -101.417336484363 0.0147231671821542 -101.417336484263 0.999891569634915 -15.147413381807 
! Gamma         0                0                0                0                
! Port Impedance         50               0                50               0                
4.12775                        0.99988916525173 -7.72778038898719 0.0148869844197868 -101.480513046514 0.0148869844197494 -101.480513046407 0.999889140522507 -15.2332319654393 
! Gamma         0                0                0                0                
! Port Impedance         50               0                50               0                
4.1475                         0.999886677759751 -7.76839307065382 0.0150530422067915 -101.543874957317 0.015053042206727 -101.543874957202 0.99988665111844 -15.3193421730415 
! Gamma         0                0                0                0                
! Port Impedance         50               0                50               0                
4.16725                        0.999884128012648 -7.80908634762947 0.0152213853455462 -101.607425577742 0.015221385345455 -101.607425577621 0.999884099620489 -15.4057493100851 
! Gamma         0                0                0                0                
! Port Impedance         50               0                50               0                
4.187                          0.999881514146747 -7.8498616667859 0.0153920597750482 -101.671168350161 0.0153920597749304 -101.671168350034 0.999881484163111 -15.4924588108919 
! Gamma         0                0                0                0                
! Port Impedance         50               0                50               0                
4.20675                        0.999878834232563 -7.89072051003885 0.0155651126070354 -101.735106800906 0.0155651126068912 -101.735106800775 0.999878802814867 -15.5794762426932 
! Gamma         0                0                0                0                
! Port Impedance         50               0                50               0                
4.2265                         0.999876086272101 -7.93166439545527 0.015740592163475 -101.799244542933 0.0157405921633048 -101.799244542798 0.999876053575712 -15.6668073098435 
! Gamma         0                0                0                0                
! Port Impedance         50               0                50               0                
4.24625                        0.999873268196023 -7.97269487840276 0.0159185480154905 -101.863585278581 0.0159185480152945 -101.863585278443 0.999873234374173 -15.7544578581956 
! Gamma         0                0                0                0                
! Port Impedance         50               0                50               0                
4.266                          0.999870377860681 -8.01381355274329 0.0160990310237908 -101.928132802442 0.0160990310235693 -101.928132802302 0.999870343064376 -15.8424338796438 
! Gamma         0                0                0                0                
! Port Impedance         50               0                50               0                
4.28575                        0.999867413045014 -8.05502205207292 0.0162820933806702 -101.992891004341 0.0162820933804235 -101.992891004199 0.999867377422942 -15.9307415168447 
! Gamma         0                0                0                0                
! Port Impedance         50               0                50               0                
4.3055                         0.999864371447291 -8.09632205100997 0.0164677886536515 -102.057863872431 0.01646778865338 -102.057863872288 0.999864335145733 -16.019387068121 
! Gamma         0                0                0                0                
! Port Impedance         50               0                50               0                
4.32525                        0.999861250681693 -8.13771526653356 0.016656171830846 -102.123055496412 0.0166561718305498 -102.123055496269 0.999861213844432 -16.108376992559 
! Gamma         0                0                0                0                
! Port Impedance         50               0                50               0                
4.345                          0.999858048274741 -8.17920345937496 0.0168472993681106 -102.188470070875 0.0168472993677902 -102.188470070732 0.999858011042971 -16.1977179153077 
! Gamma         0                0                0                0                
! Port Impedance         50               0                50               0                
4.36475                        0.999854761661531 -8.22078843546418 0.0170412292380862 -102.254111898781 0.0170412292377419 -102.254111898639 0.999854724173766 -16.287416633089 
! Gamma         0                0                0                0                
! Port Impedance         50               0                50               0                
4.3845                         0.999851388181802 -8.26247204743448 0.0172380209812033 -102.319985395077 0.0172380209808355 -102.319985394936 0.999851350573782 -16.3774801199289 
! Gamma         0                0                0                0                
! Port Impedance         50               0                50               0                
4.40425                        0.999847925075792 -8.30425619618724 0.0174377357587497 -102.386095090462 0.0174377357583588 -102.386095090323 0.999847887480397 -16.4679155331205 
! Gamma         0                0                0                0                
! Port Impedance         50               0                50               0                
4.424                          0.999844369479903 -8.34614283252043 0.0176404364080965 -102.452445635303 0.0176404364076829 -102.452445635166 0.999844332027055 -16.5587302194287 
! Gamma         0                0                0                0                
! Port Impedance         50               0                50               0                
4.44375                        0.99984071842213 -8.38813395882334 0.0178461875001858 -102.51904180371 0.0178461874997499 -102.519041803576 0.999840681238706 -16.6499317215501 
! Gamma         0                0                0                0                
! Port Impedance         50               0                50               0                
4.4635                         0.99983696881728 -8.43023163084104 0.0180550553993895 -102.585888497784 0.0180550553989317 -102.585888497653 0.999836932027016 -16.7415277848384 
! Gamma         0                0                0                0                
! Port Impedance         50               0                50               0                
4.48325                        0.999833117461924 -8.47243795951174 0.0182671083258521 -102.652990752034 0.0182671083253729 -102.652990751906 0.999833081185328 -16.8335263643089 
! Gamma         0                0                0                0                
! Port Impedance         50               0                50               0                
4.503                          0.999829161029114 -8.51475511288064 0.0184824164204409 -102.720353737986 0.0184824164199407 -102.720353737862 0.999829125383369 -16.9259356319367 
! Gamma         0                0                0                0                
! Port Impedance         50               0                50               0                
4.52275                        0.999825096062806 -8.5571853180941 0.0187010518124289 -102.787982768981 0.0187010518119082 -102.787982768861 0.999825061161683 -17.0187639842611 
! Gamma         0                0                0                0                
! Port Impedance         50               0                50               0                
4.5425                         0.999820918972009 -8.59973086347799 0.0189230886900475 -102.855883305176 0.0189230886895069 -102.85588330506 0.999820884925769 -17.1120200503131 
! Gamma         0                0                0                0                
! Port Impedance         50               0                50               0                
4.56225                        0.999816626024617 -8.64239410070435 0.0191486033740507 -102.924060958764 0.0191486033734905 -102.924060958652 0.999816592939926 -17.2057126998813 
! Gamma         0                0                0                0                
! Port Impedance         50               0                50               0                
4.582                          0.999812213340925 -8.685177447051  0.0193776743944407 -102.992521499409 0.0193776743938616 -102.992521499303 0.999812181320759 -17.2998510521332 
! Gamma         0                0                0                0                
! Port Impedance         50               0                50               0                
4.60175                        0.999807676886796 -8.72808338775849 0.0196103825705172 -103.061270859927 0.0196103825699196 -103.061270859826 0.999807646030347 -17.3944444846099 
! Gamma         0                0                0                0                
! Port Impedance         50               0                50               0                
4.6215                         0.999803012466462 -8.77111447848951 0.0198468110944154 -103.130315142206 0.0198468110937999 -103.13031514211 0.99980298286905 -17.4895026426132 
! Gamma         0                0                0                0                
! Port Impedance         50               0                50               0                
4.64125                        0.999798215714942 -8.81427334789596 0.0200870456183148 -103.199660623388 0.020087045617682 -103.199660623297 0.999798187467924 -17.5850354490062 
! Gamma         0                0                0                0                
! Port Impedance         50               0                50               0                
4.661                          0.999793282090049 -8.85756270029911 0.0203311743455055 -103.269313762329 0.0203311743448559 -103.269313762245 0.999793255280724 -17.6810531144466 
! Gamma         0                0                0                0                
! Port Impedance         50               0                50               0                
4.68075                        0.999788206863954 -8.90098531848892 0.0205792881255134 -103.339281206345 0.0205792881248477 -103.339281206266 0.999788181575477 -17.7775661480773 
! Gamma         0                0                0                0                
! Port Impedance         50               0                50               0                
4.7005                         0.999782985114302 -8.94454406664847 0.0208314805534966 -103.409569798251 0.0208314805528153 -103.409569798178 0.99978296142559 -17.8745853686977 
! Gamma         0                0                0                0                
! Port Impedance         50               0                50               0                
4.72025                        0.999777611714818 -8.98824189341031 0.0210878480741373 -103.48018658374 0.0210878480734411 -103.480186583673 0.999777589700462 -17.97212191644  
! Gamma         0                0                0                0                
! Port Impedance         50               0                50               0                
4.74                           0.999772081325404 -9.03208183505158 0.021348490090269 -103.551138819072 0.0213484900895585 -103.551138819011 0.999772061055578 -18.0701872649795 
! Gamma         0                0                0                0                
! Port Impedance         50               0                50               0                
4.75975                        0.999766388381675 -9.07606701883534 0.0216135090764907 -103.622433979142 0.0216135090757666 -103.622433979087 0.999766369922046 -18.1687932343055 
! Gamma         0                0                0                0                
! Port Impedance         50               0                50               0                
4.7795                         0.999760527083899 -9.12020066650598 0.021883010698039 -103.694079765899 0.021883010697302 -103.694079765851 0.99976051049554 -18.2679520040841 
! Gamma         0                0                0                0                
! Port Impedance         50               0                50               0                
4.79925                        0.999754491385319 -9.16448609794706 0.0221571039352015 -103.766084117176 0.0221571039344522 -103.766084117134 0.999754476724619 -18.3676761276453 
! Gamma         0                0                0                0                
! Port Impedance         50               0                50               0                
4.819                          0.999748274979792 -9.20892673501042 0.0224359012135758 -103.838455215922 0.0224359012128149 -103.838455215886 0.999748262298367 -18.4679785466286 
! Gamma         0                0                0                0                
! Port Impedance         50               0                50               0                
4.83875                        0.999741871288721 -9.253526105526  0.0227195185404972 -103.911201499878 0.0227195185397254 -103.911201499848 0.99974186063333 -18.5688726063224 
! Gamma         0                0                0                0                
! Port Impedance         50               0                50               0                
4.8585                         0.999735273447223 -9.29828784750239 0.0230080756479759 -103.984331671715 0.0230080756471941 -103.984331671691 0.99973526485968 -18.6703720717378 
! Gamma         0                0                0                0                
! Port Impedance         50               0                50               0                
4.87825                        0.99972847428949 -9.34321571352881 0.0233016961425113 -104.057854709656 0.0233016961417201 -104.057854709638 0.999728467806574 -18.7724911444572 
! Gamma         0                0                0                0                
! Port Impedance         50               0                50               0                
4.898                          0.999721466333275 -9.38831357538966 0.0236005076621684 -104.131779878622 0.0236005076613687 -104.13177987861 0.999721461986649 -18.8752444803003 
! Gamma         0                0                0                0                
! Port Impedance         50               0                50               0                
4.91775                        0.99971424176346 -9.43358542890413 0.0239046420413335 -104.206116741911 0.0239046420405259 -104.206116741905 0.999714239579586 -18.9786472078575 
! Gamma         0                0                0                0                
! Port Impedance         50               0                50               0                
4.9375                         0.999706792414639 -9.47903539900323 0.0242142354835859 -104.280875173465 0.0242142354827713 -104.280875173465 0.999706792414692 -19.0827149479365 
! Gamma         0                0                0                0                
! Port Impedance         50               0                50               0                
4.95725                        0.999699109752637 -9.52466774505833 0.0245294287431587 -104.35606537074 0.0245294287423379 -104.356065370746 0.999699111952424 -19.1874638339793 
! Gamma         0                0                0                0                
! Port Impedance         50               0                50               0                
4.977                          0.99969118485491 -9.57048686647574 0.0248503673154875 -104.431697868225 0.0248503673146614 -104.431697868236 0.999691189264786 -19.2929105335028 
! Gamma         0                0                0                0                
! Port Impedance         50               0                50               0                
4.99675                        0.999683008389734 -9.61649730857274 0.0251772016373826 -104.507783551639 0.025177201636552 -104.507783551656 0.999683015014523 -19.3990722706261 
! Gamma         0                0                0                0                
! Port Impedance         50               0                50               0                
5.0165                         0.999674570594105 -9.66270376875207 0.0255100872973944 -104.584333672866 0.0255100872965601 -104.584333672888 0.999674579433019 -19.5059668497478 
! Gamma         0                0                0                0                
! Port Impedance         50               0                50               0                
5.03625                        0.999665861250256 -9.70911110299229 0.0258491852569832 -104.661359865637 0.0258491852561461 -104.661359865664 0.999665872296817 -19.6136126804432 
! Gamma         0                0                0                0                
! Port Impedance         50               0                50               0                
5.056                          0.999656869660694 -9.75572433267329 0.0261946620831439 -104.738874162047 0.026194662082305 -104.738874162079 0.999656882902655 -19.7220288036546 
! Gamma         0                0                0                0                
! Port Impedance         50               0                50               0                
5.07575                        0.999647584621647 -9.80254865175717 0.0265466901931829 -104.816889009922 0.026546690192343 -104.816889009959 0.999647600040915 -19.8312349192537 
! Gamma         0                0                0                0                
! Port Impedance         50               0                50               0                
5.0955                         0.999637994394812 -9.84958943434619 0.0269054481123925 -104.895417291109 0.0269054481115525 -104.89541729115 0.999638011967377 -19.9412514150623 
! Gamma         0                0                0                0                
! Port Impedance         50               0                50               0                
5.11525                        0.999628086677275 -9.8968522426411 0.0272711207454217 -104.974472340737 0.0272711207445827 -104.974472340783 0.999628106373129 -20.0520993974193 
! Gamma         0                0                0                0                
! Port Impedance         50               0                50               0                
5.135                          0.999617848569461 -9.94434283532485 0.0276438996621991 -105.054067967519 0.0276438996613619 -105.054067967569 0.999617870352535 -20.1638007233932 
! Gamma         0                0                0                0                
! Port Impedance         50               0                50               0                
5.15475                        0.999607266540993 -9.99206717639821 0.0280239833993221 -105.134218475147 0.0280239833984877 -105.1342184752  0.99960729036908 -20.276378034744 
! Gamma         0                0                0                0                
! Port Impedance         50               0                50               0                
5.1745                         0.999596326394265 -10.0400314444961 0.0284115777778992 -105.214938684859 0.0284115777770687 -105.214938684917 0.999596352218952 -20.3898547937447 
! Gamma         0                0                0                0                
! Port Impedance         50               0                50               0                
5.19425                        0.999585013225587 -10.0882420427152 0.0288068962388976 -105.296243959261 0.0288068962380718 -105.296243959322 0.999585040992191 -20.5042553209846 
! Gamma         0                0                0                0                
! Port Impedance         50               0                50               0                
5.214                          0.999573311383707 -10.136705608986 0.0292101601971301 -105.378150227462 0.0292101601963102 -105.378150227526 0.999573341031206 -20.6196048352814 
! Gamma         0                0                0                0                
! Port Impedance         50               0                50               0                
5.23375                        0.999561204425497 -10.1854290270248 0.0296215994150993 -105.460674011634 0.0296215994142862 -105.460674011701 0.99956123588647 -20.7359294958416 
! Gamma         0                0                0                0                
! Port Impedance         50               0                50               0                
5.2535                         0.999548675068593 -10.2344194379027 0.0300414523980065 -105.543832455074 0.0300414523972013 -105.543832455143 0.999548708269159 -20.8532564468183 
! Gamma         0                0                0                0                
! Port Impedance         50               0                50               0                
5.27325                        0.999535705140758 -10.2836842522749 0.0304699668113355 -105.627643351873 0.0304699668105393 -105.627643351945 0.999535740000514 -20.9716138644263 
! Gamma         0                0                0                0                
! Port Impedance         50               0                50               0                
5.293                          0.999522275525679 -10.3332311633116 0.030907399922526 -105.712125178312 0.0309073999217399 -105.712125178386 0.999522311957649 -21.0910310067878 
! Gamma         0                0                0                0                
! Port Impedance         50               0                50               0                
5.31275                        0.999508366104948 -10.3830681603795 0.0313540190683704 -105.797297126076 0.0313540190675954 -105.797297126151 0.999508404015523 -21.2115382666942 
! Gamma         0                0                0                0                
! Port Impedance         50               0                50               0                
5.3325                         0.999493955695885 -10.4332035435256 0.0318101021498954 -105.883179137436 0.0318101021491327 -105.883179137513 0.99949399498478 -21.3331672274861 
! Gamma         0                0                0                0                
! Port Impedance         50               0                50               0                
5.35225                        0.999479021984894 -10.483645938817 0.0322759381566278 -105.969791942532 0.0322759381558785 -105.96979194261 0.999479062545094 -21.4559507222675 
! Gamma         0                0                0                0                
! Port Impedance         50               0                50               0                
5.372                          0.999463541455961 -10.5344043145971 0.0327518277222956 -106.057157098885 0.0327518277215608 -106.057157098964 0.999463583173678 -21.5799228966884 
! Gamma         0                0                0                0                
! Port Impedance         50               0                50               0                
5.39175                        0.999447489313898 -10.5854879987226 0.0332380837141802 -106.145297033322 0.033238083713461 -106.145297033402 0.999447532068531 -21.7051192755498 
! Gamma         0                0                0                0                
! Port Impedance         50               0                50               0                
5.4115                         0.999430839401894 -10.6369066968505 0.0337350318585156 -106.234235086469 0.0337350318578132 -106.23423508655 0.999430883065989 -21.8315768335042 
! Gamma         0                0                0                0                
! Port Impedance         50               0                50               0                
5.43125                        0.999413564112883 -10.6886705118508 0.0342430114045273 -106.323995560004 0.034243011403843 -106.323995560084 0.999413608552102 -21.9593340701489 
! Gamma         0                0                0                0                
! Port Impedance         50               0                50               0                
5.451                          0.999395634294207 -10.7407899644252 0.0347623758299171 -106.414603766865 0.0347623758292519 -106.414603766945 0.999395679367295 -22.088431089833 
! Gamma         0                0                0                0                
! Port Impedance         50               0                50               0                
5.47075                        0.999377019144984 -10.7932760150212 0.0352934935908358 -106.506086084649 0.035293493590191 -106.506086084729 0.999377064703744 -22.2189096865274 
! Gamma         0                0                0                0                
! Port Impedance         50               0                50               0                
5.4905                         0.999357686105549 -10.8461400871366 0.0358367489196441 -106.598470012416 0.0358367489190209 -106.598470012495 0.999357731994822 -22.3508134341349 
! Gamma         0                0                0                0                
! Port Impedance         50               0                50               0                
5.51025                        0.999337600738257 -10.8993940921181 0.0363925426740407 -106.691784231166 0.0363925426734403 -106.691784231244 0.999337646795908 -22.4841877826523 
! Gamma         0                0                0                0                
! Port Impedance         50               0                50               0                
5.53                           0.999316726598895 -10.9530504555666 0.0369612932414493 -106.786058668276 0.036961293240873 -106.786058668353 0.999316772655801 -22.6190801606311 
! Gamma         0                0                0                0                
! Port Impedance         50               0                50               0                
5.54975                        0.999295025097835 -11.0071221454719 0.0375434375028933 -106.881324566188 0.0375434375023424 -106.881324566263 0.999295070977876 -22.7555400844219 
! Gamma         0                0                0                0                
! Port Impedance         50               0                50               0                