! Touchstone file exported from HFSS 2025.2.0
!        File:           D:/lfl/Documents/Ansoft/06082026_005pf.aedt
!        Generated:      06:04:16 PM Jul 18, 2026
!        Design:         cpw_7mm1
!        Project:        06082026_005pf
!        Setup:          Setup1
!        Solution:       Sweep
!
# GHz S MA R 50.000000
! Terminal data exported
! Port[1] = 1
! Port[2] = 2
3.95                           0.999996089693619 -3.06019888880779 0.00279653311656235 -95.1859088896241 0.00279653311656212 -95.1859088896241 0.999996089693619 -7.31161889044039 
! Gamma         0                0                0                0                
! Port Impedance         50               0                50               0                
3.96975                        0.999996008207087 -3.07598700994653 0.00282542655083042 -95.2135250620881 0.00282542655084018 -95.2135250621546 0.999996007364754 -7.35106087059294 
! Gamma         0                0                0                0                
! Port Impedance         50               0                50               0                
3.9895                         0.999995924922817 -3.09178534264432 0.0028546624015018 -95.2411768009849 0.00285466240152136 -95.241176801113 0.999995923283187 -7.39056393433421 
! Gamma         0                0                0                0                
! Port Impedance         50               0                50               0                
4.00925                        0.999995839793256 -3.10759404196696 0.00288424669214155 -95.2688646585253 0.00288424669217074 -95.2688646587103 0.99999583740095 -7.43012902592061 
! Gamma         0                0                0                0                
! Port Impedance         50               0                50               0                
4.029                          0.999995752769383 -3.12341326609921 0.0029141855779378 -95.2965891980431 0.00291418557797642 -95.2965891982801 0.99999574966859 -7.46975710878902 
! Gamma         0                0                0                0                
! Port Impedance         50               0                50               0                
4.04875                        0.999995663800666 -3.13924317642888 0.00294448534931071 -95.3243509942955 0.00294448534935858 -95.3243509945803 0.999995660035114 -7.5094491660745 
! Gamma         0                0                0                0                
! Port Impedance         50               0                50               0                
4.0685                         0.999995572835001 -3.15508393763362 0.00297515243563981 -95.3521506337742 0.00297515243569673 -95.3521506341023 0.99999556844794 -7.54920620114483 
! Gamma         0                0                0                0                
! Port Impedance         50               0                50               0                
4.08825                        0.99999547981866 -3.1709357177706 0.00300619340911398 -95.3799887150253 0.00300619340917974 -95.3799887153926 0.999995474852838 -7.58902923815254 
! Gamma         0                0                0                0                
! Port Impedance         50               0                50               0                
4.108                          0.999995384696231 -3.18679868836913 0.00303761498870904 -95.4078658489811 0.00303761498878343 -95.4078658493837 0.999995379193871 -7.62891932260519 
! Gamma         0                0                0                0                
! Port Impedance         50               0                50               0                
4.12775                        0.999995287410558 -3.2026730245263 0.00306942404429779 -95.435782659302 0.00306942404438061 -95.435782659736 0.999995281413338 -7.66887752195442 
! Gamma         0                0                0                0                
! Port Impedance         50               0                50               0                
4.1475                         0.99999518790268 -3.21855890500589 0.00310162760089775 -95.4637397827301 0.00310162760098876 -95.4637397831918 0.999995181451708 -7.70890492620478 
! Gamma         0                0                0                0                
! Port Impedance         50               0                50               0                
4.16725                        0.999995086111759 -3.23445651234049 0.00313423284306187 -95.4917378694546 0.00313423284316085 -95.4917378699404 0.999995079247553 -7.7490026485428 
! Gamma         0                0                0                0                
! Port Impedance         50               0                50               0                
4.187                          0.999994981975018 -3.25036603293715 0.00316724711941806 -95.5197775834896 0.00316724711952478 -95.5197775839962 0.999994974737484 -7.78917182598734 
! Gamma         0                0                0                0                
! Port Impedance         50               0                50               0                
4.20675                        0.999994875427665 -3.26628765718656 0.00320067794736326 -95.5478596030644 0.00320067794747749 -95.5478596035885 0.999994867856075 -7.82941362006199 
! Gamma         0                0                0                0                
! Port Impedance         50               0                50               0                
4.2265                         0.999994766402821 -3.28222157957595 0.00323453301791836 -95.5759846210278 0.00323453301803985 -95.5759846215663 0.999994758535791 -7.86972921749033 
! Gamma         0                0                0                0                
! Port Impedance         50               0                50               0                
4.24625                        0.999994654831442 -3.29816799880588 0.0032688202007503 -95.6041533452652 0.00326882020087881 -95.6041533458152 0.999994646706909 -7.91011983091507 
! Gamma         0                0                0                0                
! Port Impedance         50               0                50               0                
4.266                          0.999994540642236 -3.31412711791103 0.0033035475493683 -95.6323664991313 0.00330354754950357 -95.6323664996899 0.999994532297437 -7.95058669964197 
! Gamma         0                0                0                0                
! Port Impedance         50               0                50               0                
4.28575                        0.999994423761579 -3.33009914438518 0.00333872330650103 -95.6606248218968 0.0033387233066428 -95.6606248224613 0.999994415233034 -7.99113109040955 
! Gamma         0                0                0                0                
! Port Impedance         50               0                50               0                
4.3055                         0.999994304113431 -3.34608429031062 0.00337435590966237 -95.688929069211 0.00337435590981037 -95.6889290697788 0.999994295436913 -8.03175429818574 
! Gamma         0                0                0                0                
! Port Impedance         50               0                50               0                
4.32525                        0.999994181619236 -3.36208277249195 0.00341045399691337 -95.7172800135812 0.00341045399706733 -95.71728001415  0.999994172829758 -8.07245764699234 
! Gamma         0                0                0                0                
! Port Impedance         50               0                50               0                
4.345                          0.999994056197834 -3.37809481259476 0.00344702641282853 -95.7456784448682 0.0034470264129882 -95.7456784454357 0.999994047329624 -8.11324249075876 
! Gamma         0                0                0                0                
! Port Impedance         50               0                50               0                
4.36475                        0.999993927765355 -3.39412063728915 0.003484082214675 -95.7741251708001 0.00348408221484007 -95.774125171364 0.999993918851835 -8.15411021420595 
! Gamma         0                0                0                0                
! Port Impedance         50               0                50               0                
4.3845                         0.999993796235119 -3.41016047839836 0.00352163067881339 -95.8026210175037 0.00352163067898358 -95.802621018062 0.999993787308885 -8.19506223376205 
! Gamma         0                0                0                0                
! Port Impedance         50               0                50               0                
4.40425                        0.99999366151752 -3.42621457305282 0.00355968130732984 -95.8311668300558 0.00355968130750487 -95.8311668306066 0.999993652610322 -8.23609999851083 
! Gamma         0                0                0                0                
! Port Impedance         50               0                50               0                
4.424                          0.999993523519919 -3.44228316384971 0.00359824383490883 -95.8597634730541 0.0035982438350884 -95.8597634735957 0.999993514662641 -8.27722499117454 
! Gamma         0                0                0                0                
! Port Impedance         50               0                50               0                
4.44375                        0.99999338214652 -3.45836649901831 0.00363732823595718 -95.888411831209 0.00363732823614099 -95.8884118317396 0.999993373369159 -8.31843872913251 
! Gamma         0                0                0                0                
! Port Impedance         50               0                50               0                
4.4635                         0.999993237298247 -3.47446483259148 0.00367694473198993 -95.9171128099567 0.00367694473217768 -95.9171128104747 0.999993228629892 -8.35974276547705 
! Gamma         0                0                0                0                
! Port Impedance         50               0                50               0                
4.48325                        0.999993088872612 -3.49057842458338 0.00371710379928945 -95.9458673360953 0.00371710379948082 -95.9458673365993 0.999993080341427 -8.40113869010825 
! Gamma         0                0                0                0                
! Port Impedance         50               0                50               0                
4.503                          0.999992936763578 -3.50670754117381 0.00375781617684947 -95.9746763584448 0.00375781617704415 -95.9746763589333 0.999992928396782 -8.44262813086941 
! Gamma         0                0                0                0                
! Port Impedance         50               0                50               0                
4.52275                        0.999992780861422 -3.52285245489944 0.00379909287461679 -96.0035408485306 0.00379909287481446 -96.0035408490026 0.999992772685268 -8.48421275472482 
! Gamma         0                0                0                0                
! Port Impedance         50               0                50               0                
4.5425                         0.999992621052576 -3.53901344485218 0.00384094518204339 -96.0324618012943 0.00384094518224373 -96.0324618017485 0.999992613092336 -8.5258942689818 
! Gamma         0                0                0                0                
! Port Impedance         50               0                50               0                
4.56225                        0.999992457219479 -3.55519079688507 0.00388338467696289 -96.0614402358297 0.00388338467716558 -96.0614402362651 0.99999244949942 -8.56767442255889 
! Gamma         0                0                0                0                
! Port Impedance         50               0                50               0                
4.582                          0.999992289240409 -3.57138480382601 0.00392642323480575 -96.0904771961482 0.00392642323501045 -96.0904771965638 0.99999228178378 -8.60955500730232 
! Gamma         0                0                0                0                
! Port Impedance         50               0                50               0                
4.60175                        0.99999211698931 -3.58759576569964 0.00397007303816828 -96.1195737519724 0.00397007303837465 -96.1195737523674 0.999992109818324 -8.65153785935284 
! Gamma         0                0                0                0                
! Port Impedance         50               0                50               0                
4.6215                         0.999991940335619 -3.60382398995776 0.00401434658675154 -96.1487309995614 0.00401434658695925 -96.148730999935 0.999991933471432 -8.69362486056523 
! Gamma         0                0                0                0                
! Port Impedance         50               0                50               0                
4.64125                        0.999991759144071 -3.62006979171873 0.00405925670768684 -96.1779500625669 0.00405925670789553 -96.1779500629187 0.999991752606766 -8.73581793998289 
! Gamma         0                0                0                0                
! Port Impedance         50               0                50               0                
4.661                          0.999991573274505 -3.63633349401618 0.00410481656626539 -96.2072320929241 0.00410481656647473 -96.2072320932533 0.999991567083078 -8.77811907536996 
! Gamma         0                0                0                0                
! Port Impedance         50               0                50               0                
4.68075                        0.999991382581656 -3.65261542805744 0.00415103967709093 -96.236578271776 0.00415103967730057 -96.2365782720822 0.999991376753997 -8.82053029480369 
! Gamma         0                0                0                0                
! Port Impedance         50               0                50               0                
4.7005                         0.999991186914939 -3.66891593349229 0.00419793991567456 -96.2659898104361 0.00419793991588413 -96.2659898107188 0.999991181467819 -8.86305367832972 
! Gamma         0                0                0                0                
! Port Impedance         50               0                50               0                
4.72025                        0.999990986118222 -3.68523535869235 0.00424553153049264 -96.2954679513875 0.00424553153070179 -96.2954679516467 0.999990981067273 -8.9056913596834 
! Gamma         0                0                0                0                
! Port Impedance         50               0                50               0                
4.74                           0.999990780029586 -3.70157406104166 0.00429382915552932 -96.3250139693242 0.00429382915573769 -96.3250139695594 0.99999077538929 -8.94844552808003 
! Gamma         0                0                0                0                
! Port Impedance         50               0                50               0                
4.75975                        0.999990568481075 -3.71793240723897 0.00434284782332661 -96.3546291722323 0.00434284782353383 -96.3546291724435 0.999990564264748 -8.9913184300774 
! Gamma         0                0                0                0                
! Port Impedance         50               0                50               0                
4.7795                         0.999990351298432 -3.73431077361239 0.00439260297856603 -96.3843149025169 0.00439260297877174 -96.384314902704 0.999990347518212 -9.034312371514  
! Gamma         0                0                0                0                
! Port Impedance         50               0                50               0                
4.79925                        0.999990128300827 -3.75070954644681 0.00444311049220738 -96.4140725381741 0.0044431104924112 -96.414072538337 0.999990124967656 -9.07742971952661 
! Gamma         0                0                0                0                
! Port Impedance         50               0                50               0                
4.819                          0.999989899300559 -3.76712912232484 0.00449438667621134 -96.4439034940114 0.0044943866764129 -96.4439034941502 0.999989896424177 -9.12067290465092 
! Gamma         0                0                0                0                
! Port Impedance         50               0                50               0                
4.83875                        0.999989664102759 -3.78356990848197 0.00454644829887426 -96.4738092229194 0.00454644829907318 -96.4738092230344 0.999989661691685 -9.16404442300941 
! Gamma         0                0                0                0                
! Port Impedance         50               0                50               0                
4.8585                         0.999989422505065 -3.80003232317637 0.00459931260080504 -96.5037912171961 0.00459931260100095 -96.5037912172874 0.999989420566589 -9.20754683859054 
! Gamma         0                0                0                0                
! Port Impedance         50               0                50               0                
4.87825                        0.999989174297284 -3.81651679607449 0.00465299731157563 -96.5338510099267 0.00465299731176814 -96.5338510099946 0.999989172837456 -9.25118278562396 
! Gamma         0                0                0                0                
! Port Impedance         50               0                50               0                
4.898                          0.999988919261042 -3.83302376865275 0.00470752066707848 -96.5639901764224 0.00470752066726721 -96.5639901764673 0.999988918284659 -9.29495497105629 
! Gamma         0                0                0                0                
! Port Impedance         50               0                50               0                
4.91775                        0.999988657169405 -3.84955369461656 0.00476290142762628 -96.5942103357207 0.00476290142781084 -96.5942103357429 0.999988656680005 -9.33886617713256 
! Gamma         0                0                0                0                
! Port Impedance         50               0                50               0                
4.9375                         0.999988387786491 -3.86610704033723 0.00481915889683113 -96.6245131521496 0.00481915889701114 -96.6245131521496 0.999988387786342 -9.3829192640887 
! Gamma         0                0                0                0                
! Port Impedance         50               0                50               0                
4.95725                        0.999988110867054 -3.88268428530779 0.00487631294130272 -96.65490033696  0.00487631294147779 -96.6549003369383 0.999988111357143 -9.42711717296055 
! Gamma         0                0                0                0                
! Port Impedance         50               0                50               0                
4.977                          0.999987826156046 -3.89928592261879 0.0049343840112071 -96.6853736500291 0.00493438401137684 -96.6853736499862 0.999987827136077 -9.47146292851538 
! Gamma         0                0                0                0                
! Port Impedance         50               0                50               0                
4.99675                        0.999987533388163 -3.91591245945483 0.00499339316173026 -96.7159349016389 0.00499339316189428 -96.7159349015755 0.999987534856548 -9.51595964231229 
! Gamma         0                0                0                0                
! Port Impedance         50               0                50               0                
5.0165                         0.999987232287358 -3.93256441761321 0.00505336207549335 -96.7465859543332 0.00505336207565125 -96.7465859542499 0.999987234241207 -9.56061051589801 
! Gamma         0                0                0                0                
! Port Impedance         50               0                50               0                
5.03625                        0.999986922566328 -3.94924233404559 0.00511431308596896 -96.7773287248575 0.00511431308612035 -96.777328724755 0.99998692500145 -9.60541884414525 
! Gamma         0                0                0                0                
! Port Impedance         50               0                50               0                
5.056                          0.999986603925981 -3.96594676142405 0.00517626920195119 -96.808165186186 0.00517626920209567 -96.808165186065 0.999986606836877 -9.65038801874103 
! Gamma         0                0                0                0                
! Port Impedance         50               0                50               0                
5.07575                        0.999986276054864 -3.98267826873267 0.00523925413313498 -96.8390973696407 0.00523925413327217 -96.839097369502 0.999986279434724 -9.69552153183295 
! Gamma         0                0                0                0                
! Port Impedance         50               0                50               0                
5.0955                         0.999985938628563 -3.99943744188622 0.00530329231686402 -96.8701273671064 0.00530329231699351 -96.8701273669508 0.999985942469263 -9.74082297984175 
! Gamma         0                0                0                0                
! Port Impedance         50               0                50               0                
5.11525                        0.999985591309072 -4.01622488437713 0.00536840894610969 -96.9012573333486 0.0053684089462311 -96.901257333177 0.999985595601174 -9.78629606744922 
! Gamma         0                0                0                0                
! Port Impedance         50               0                50               0                
5.135                          0.999985233744121 -4.03304121795248 0.00543462999874799 -96.932489488438 0.00543462999886091 -96.9324894882512 0.999985238476872 -9.83194461177076 
! Gamma         0                0                0                0                
! Port Impedance         50               0                50               0                
5.15475                        0.99998486556647 -4.04988708332263 0.00550198226820475 -96.9638261202883 0.00550198226830879 -96.9638261200872 0.999984870727803 -9.8777725467228 
! Gamma         0                0                0                0                
! Port Impedance         50               0                50               0                
5.1745                         0.99998448639316 -4.06676314090306 0.00557049339554469 -96.9952695873138 0.00557049339563946 -96.9952695870993 0.999984491969695 -9.9237839275957 
! Gamma         0                0                0                0                
! Port Impedance         50               0                50               0                
5.19425                        0.999984095824723 -4.08367007159147 0.00564019190308408 -97.0268223212124 0.00564019190316918 -97.0268223209856 0.999984101801771 -9.96998293584356 
! Gamma         0                0                0                0                
! Port Impedance         50               0                50               0                
5.214                          0.99998369344434 -4.10060857758198 0.00571110722961196 -97.0584868298825 0.005711107229687 -97.0584868296443 0.99998369980591 -10.016373884103 
! Gamma         0                0                0                0                
! Port Impedance         50               0                50               0                
5.23375                        0.999983278816964 -4.11757938321852 0.00578326976731063 -97.0902657004798 0.00578326976737523 -97.0902657002312 0.999983285545762 -10.0629612214539 
! Gamma         0                0                0                0                
! Port Impedance         50               0                50               0                
5.2535                         0.99998285148837 -4.1345832358897 0.00585671090047162 -97.1221616026227 0.00585671090052538 -97.1221616023647 0.999982858565812 -10.1097495389356 
! Gamma         0                0                0                0                
! Port Impedance         50               0                50               0                
5.27325                        0.999982410984166 -4.15162090696744 0.00593146304610973 -97.1541772917551 0.00593146304615227 -97.1541772914887 0.999982418390384 -10.1567435753332 
! Gamma         0                0                0                0                
! Port Impedance         50               0                50               0                
5.293                          0.999981956808737 -4.16869319279199 0.00600755969658483 -97.1863156126749 0.00600755969661576 -97.1863156124012 0.99998196452259 -10.2039482232501 
! Gamma         0                0                0                0                
! Port Impedance         50               0                50               0                
5.31275                        0.999981488444128 -4.1858009157059 0.00608503546434778 -97.2185795032382 0.00608503546436672 -97.2185795029582 0.999981496443208 -10.2513685354826 
! Gamma         0                0                0                0                
! Port Impedance         50               0                50               0                
5.3325                         0.999981005348852 -4.20294492513993 0.00616392612893518 -97.25097199825  0.00616392612894175 -97.2509719979648 0.999981013609505 -10.2990097317145 
! Gamma         0                0                0                0                
! Port Impedance         50               0                50               0                
5.35225                        0.999980506956637 -4.22012609875392 0.00624426868634577 -97.283496233551 0.0062442686863396 -97.2834962332616 0.99998051545397 -10.3468772055508 
! Gamma         0                0                0                0                
! Port Impedance         50               0                50               0                
5.372                          0.999979992675078 -4.23734534363584 0.00632610140094048 -97.3161554503142 0.00632610140092119 -97.3161554500217 0.999980001382981 -10.394976531911 
! Gamma         0                0                0                0                
! Port Impedance         50               0                50               0                
5.39175                        0.999979461884227 -4.2546035975626 0.00640946386001776 -97.3489529995621 0.00640946385998499 -97.3489529992676 0.999979470775386 -10.443313474803 
! Gamma         0                0                0                0                
! Port Impedance         50               0                50               0                
5.4115                         0.99997891393507 -4.27190183032637 0.00649439703122653 -97.3818923469188 0.00649439703117992 -97.3818923466234 0.999978922980989 -10.4918939955007 
! Gamma         0                0                0                0                
! Port Impedance         50               0                50               0                
5.43125                        0.999978348147927 -4.2892410451303 0.00658094332299016 -97.4149770776111 0.00658094332292934 -97.4149770773157 0.999978357318949 -10.5407242611504 
! Gamma         0                0                0                0                
! Port Impedance         50               0                50               0                
5.451                          0.999977763810734 -4.306622280058  0.00666914664812733 -97.4482109017343 0.00666914664805195 -97.44821090144  0.999977773076067 -10.5898106538329 
! Gamma         0                0                0                0                
! Port Impedance         50               0                50               0                
5.47075                        0.999977160177229 -4.32404660962143 0.00675905249086889 -97.4815976597984 0.0067590524907786 -97.4815976595064 0.999977169504966 -10.639159780108 
! Gamma         0                0                0                0                
! Port Impedance         50               0                50               0                
5.4905                         0.999976536465003 -4.341515146392  0.00685070797748373 -97.5151413285737 0.00685070797737819 -97.515141328285 0.999976545822157 -10.6887784810735 
! Gamma         0                0                0                0                
! Port Impedance         50               0                50               0                
5.51025                        0.999975891853437 -4.35902904272018 0.00694416195074272 -97.5488460272528 0.00694416195062159 -97.5488460269684 0.999975901205966 -10.7386738429705 
! Gamma         0                0                0                0                
! Port Impedance         50               0                50               0                
5.53                           0.999975225481495 -4.37658949254935 0.00703946504846585 -97.5827160239512 0.00703946504832881 -97.582716023672 0.999975234794336 -10.78885320837  
! Gamma         0                0                0                0                
! Port Impedance         50               0                50               0                
5.54975                        0.999974536445367 -4.39419773332992 0.0071366697864164 -97.6167557425669 0.00713666978626313 -97.6167557422939 0.999974545682472 -10.839324187978 
! Gamma         0                0                0                0                
! Port Impedance         50               0                50               0                