! Touchstone file exported from HFSS 2025.2.0
!        File:           D:/lfl/Documents/Ansoft/06082026_005pf.aedt
!        Generated:      05:11:26 PM Jul 18, 2026
!        Design:         cpw_7mm1
!        Project:        06082026_005pf
!        Setup:          Setup1
!        Solution:       Sweep
!
# GHz S MA R 50.000000
! Terminal data exported
! Port[1] = 1
! Port[2] = 2
3.95                           0.999977206697748 -7.39940253544575 0.0067517468084578 -97.3932722685603 0.00675174680914569 -97.3932722685603 0.999977206697748 -7.3871420016749 
! Gamma         0                0                0                0                
! Port Impedance         50               0                50               0                
3.96975                        0.999976720526352 -7.43925636733857 0.00682314069443259 -97.4331455464575 0.00682314069506733 -97.433145546371 0.999976720577211 -7.42703265910301 
! Gamma         0                0                0                0                
! Port Impedance         50               0                50               0                
3.9895                         0.999976223274302 -7.47917176708314 0.00689541452754253 -97.4730813668128 0.00689541452812443 -97.473081366646 0.999976223373024 -7.46698697947655 
! Gamma         0                0                0                0                
! Port Impedance         50               0                50               0                
4.00925                        0.999975714638184 -7.51914972483469 0.00696858435531317 -97.5130807385581 0.00696858435584255 -97.5130807383172 0.99997571478182 -7.50700598615126 
! Gamma         0                0                0                0                
! Port Impedance         50               0                50               0                
4.029                          0.999975194304893 -7.55919125182159 0.00704266659081474 -97.5531446920299 0.00704266659129196 -97.5531446917207 0.99997519449054 -7.54709072425791 
! Gamma         0                0                0                0                
! Port Impedance         50               0                50               0                
4.04875                        0.999974661951274 -7.59929738093876 0.00711767802310665 -97.5932742795721 0.00711767802353207 -97.5932742792003 0.999974662176077 -7.58724226131551 
! Gamma         0                0                0                0                
! Port Impedance         50               0                50               0                
4.0685                         0.999974117243751 -7.63946916736137 0.00719363582803902 -97.63347057616  0.00719363582841304 -97.6334705757312 0.999974117504906 -7.62746168786537 
! Gamma         0                0                0                0                
! Port Impedance         50               0                50               0                
4.08825                        0.999973559837937 -7.67970768917941 0.00727055757942558 -97.6737346800452 0.00727055757974862 -97.6737346795647 0.999973560132691 -7.66775011812687 
! Gamma         0                0                0                0                
! Port Impedance         50               0                50               0                
4.108                          0.999972989378234 -7.72001404805421 0.0073484612606029 -97.7140677134228 0.0073484612608754 -97.7140677128957 0.999972989703885 -7.70810869067583 
! Gamma         0                0                0                0                
! Port Impedance         50               0                50               0                
4.12775                        0.999972405497411 -7.76038936989757 0.00742736527639159 -97.7544708231219 0.00742736527661401 -97.7544708225531 0.999972405851311 -7.74853856914624 
! Gamma         0                0                0                0                
! Port Impedance         50               0                50               0                
4.1475                         0.999971807816161 -7.80083480557463 0.00750728846547591 -97.7949451813194 0.00750728846564874 -97.7949451807138 0.999971808195715 -7.78904094295654 
! Gamma         0                0                0                0                
! Port Impedance         50               0                50               0                
4.16725                        0.999971195942645 -7.84135153163129 0.00758825011321888 -97.8354919862801 0.00758825011334264 -97.8354919856422 0.999971196345314 -7.82961702806128 
! Gamma         0                0                0                0                
! Port Impedance         50               0                50               0                
4.187                          0.999970569472015 -7.88194075104725 0.007670269964931 -97.8761124631213 0.00767026996500624 -97.8761124624555 0.999970569895315 -7.87026806772928 
! Gamma         0                0                0                0                
! Port Impedance         50               0                50               0                
4.20675                        0.999969927985909 -7.92260369401585 0.00775336823961125 -97.916807864606 0.00775336823963852 -97.9168078639165 0.999969928427415 -7.91099533334931 
! Gamma         0                0                0                0                
! Port Impedance         50               0                50               0                
4.2265                         0.999969271051934 -7.96334161875155 0.00783756564418018 -97.9575794719633 0.00783756564416007 -97.9575794712542 0.999969271509279 -7.95180012526462 
! Gamma         0                0                0                0                
! Port Impedance         50               0                50               0                
4.24625                        0.999968598223119 -8.00415581232651 0.00792288338822571 -97.9984285957387 0.00792288338815884 -97.9984285950138 0.999968598693995 -7.99268377363729 
! Gamma         0                0                0                0                
! Port Impedance         50               0                50               0                
4.266                          0.999967909037347 -8.04504759153729 0.00800934319928343 -98.039356576675 0.00800934319917042 -98.039356575938 0.999967909519505 -8.03364763934381 
! Gamma         0                0                0                0                
! Port Impedance         50               0                50               0                
4.28575                        0.999967203016758 -8.08601830380309 0.00809696733867387 -98.0803647866253 0.00809696733851539 -98.0803647858798 0.99996720350801 -8.07469311490325 
! Gamma         0                0                0                0                
! Port Impedance         50               0                50               0                
4.3055                         0.999966479667127 -8.12706932809673 0.00818577861792089 -98.1214546294993 0.00818577861771762 -98.1214546287486 0.999966480165349 -8.11582162543925 
! Gamma         0                0                0                0                
! Port Impedance         50               0                50               0                
4.32525                        0.999965738477217 -8.16820207590992 0.00827580041577584 -98.1626275422442 0.00827580041552849 -98.1626275414915 0.999965738980346 -8.15703462967742 
! Gamma         0                0                0                0                
! Port Impedance         50               0                50               0                
4.345                          0.999964978918096 -8.20941799225426 0.00836705669587406 -98.2038849958623 0.00836705669558337 -98.2038849951106 0.999964979424132 -8.19833362097971 
! Gamma         0                0                0                0                
! Port Impedance         50               0                50               0                
4.36475                        0.999964200442427 -8.25071855669942 0.00845957202505099 -98.2452284964661 0.00845957202471771 -98.2452284957184 0.999964200949435 -8.23972012841712 
! Gamma         0                0                0                0                
! Port Impedance         50               0                50               0                
4.3845                         0.999963402483725 -8.29210528445033 0.00855337159234694 -98.2866595863733 0.00855337159197185 -98.2866595856322 0.999963402989834 -8.28119571788282 
! Gamma         0                0                0                0                
! Port Impedance         50               0                50               0                
4.40425                        0.999962584455575 -8.33357972746488 0.0086484812287309 -98.3281798452426 0.00864848122831481 -98.3281798445107 0.999962584958981 -8.32276199324706 
! Gamma         0                0                0                0                
! Port Impedance         50               0                50               0                
4.424                          0.999961745750822 -8.37514347561413 0.00874492742757524 -98.3697908912532 0.00874492742711898 -98.369790890533 0.999961746249787 -8.364420597556  
! Gamma         0                0                0                0                
! Port Impedance         50               0                50               0                
4.44375                        0.999960885740711 -8.41679815788673 0.00884273736591488 -98.4114943823291 0.00884273736541931 -98.4114943816228 0.999960886233563 -8.40617321427629 
! Gamma         0                0                0                0                
! Port Impedance         50               0                50               0                
4.4635                         0.999960003774001 -8.45854544363977 0.00894193892652622 -98.45329201741  0.0089419389259922 -98.4532920167198 0.999960004259135 -8.44802156858753 
! Gamma         0                0                0                0                
! Port Impedance         50               0                50               0                
4.48325                        0.99995909917602 -8.50038704389784 0.00904256072086282 -98.4951855377724 0.00904256072029126 -98.4951855371002 0.999959099651901 -8.48996742872469 
! Gamma         0                0                0                0                
! Port Impedance         50               0                50               0                
4.503                          0.99995817124769 -8.54232471270291 0.00914463211288696 -98.5371767284013 0.00914463211227879 -98.5371767277489 0.999958171712848 -8.53201260737283 
! Gamma         0                0                0                0                
! Port Impedance         50               0                50               0                
4.52275                        0.999957219264493 -8.58436024851691 0.00924818324383811 -98.5792674194157 0.00924818324319428 -98.5792674187849 0.99995721971753 -8.57415896311652 
! Gamma         0                0                0                0                
! Port Impedance         50               0                50               0                
4.5425                         0.999956242475396 -8.62649549567978 0.00935324505798142 -98.6214594875513 0.0093532450573029 -98.6214594869436 0.999956242914982 -8.6164084019464 
! Gamma         0                0                0                0                
! Port Impedance         50               0                50               0                
4.56225                        0.999955240101717 -8.66873234592548 0.00945984932938193 -98.6637548577008 0.00945984932866972 -98.6637548571177 0.999955240526593 -8.65876287882567 
! Gamma         0                0                0                0                
! Port Impedance         50               0                50               0                
4.582                          0.99995421133594 -8.71107273995846 0.00956802868975229 -98.7061555045167 0.0095680286890074 -98.7061555039595 0.999954211744914 -8.70122439931913 
! Gamma         0                0                0                0                
! Port Impedance         50               0                50               0                
4.60175                        0.999953155340464 -8.75351866909383 0.00967781665742456 -98.7486634540785 0.00967781665664804 -98.7486634535483 0.999953155732417 -8.74379502128796 
! Gamma         0                0                0                0                
! Port Impedance         50               0                50               0                
4.6215                         0.999952071246301 -8.7960721769638 0.0097892476674994 -98.7912807856274 0.00978924766669231 -98.7912807851253 0.999952071620184 -8.786476856653  
! Gamma         0                0                0                0                
! Port Impedance         50               0                50               0                
4.64125                        0.999950958151696 -8.83873536129398 0.00990235710322872 -98.8340096333714 0.00990235710239215 -98.8340096328983 0.99995095850653 -8.82927207323022 
! Gamma         0                0                0                0                
! Port Impedance         50               0                50               0                
4.661                          0.999949815120689 -8.88151037575248 0.0100171813286911 -98.8768521883657 0.0100171813278261 -98.8768521879224 0.999949815455567 -8.8721828966415 
! Gamma         0                0                0                0                
! Port Impedance         50               0                50               0                
4.68075                        0.999948641181595 -8.92439943187575 0.0101337577228223 -98.9198107004697 0.0101337577219301 -98.919810700057 0.99994864149568 -8.9152116123045 
! Gamma         0                0                0                0                
! Port Impedance         50               0                50               0                
4.7005                         0.999947435325412 -8.96740480107448 0.0102521247148673 -98.9628874803865 0.0102521247139491 -98.9628874800049 0.999947435617939 -8.95836056750548 
! Gamma         0                0                0                0                
! Port Impedance         50               0                50               0                
4.72025                        0.999946196504142 -9.01052881672383 0.0103723218213231 -99.0060849017875 0.01037232182038 -99.0060849014374 0.999946196774416 -9.00163217355914 
! Gamma         0                0                0                0                
! Port Impedance         50               0                50               0                
4.74                           0.999944923629032 -9.05377387634191 0.0104943896844459 -99.0494054035266 0.0104943896834791 -99.0494054032085 0.99994492387643 -9.04502890805972 
! Gamma         0                0                0                0                
! Port Impedance         50               0                50               0                
4.75975                        0.999943615568714 -9.09714244386108 0.0106183701124006 -99.0928514919498 0.0106183701114113 -99.092851491664 0.999943615792683 -9.08855331722789 
! Gamma         0                0                0                0                
! Port Impedance         50               0                50               0                
4.7795                         0.999942271147257 -9.14063705199655 0.0107443061211353 -99.1364257433023 0.0107443061201248 -99.1364257430489 0.999942271347317 -9.13220801835835 
! Gamma         0                0                0                0                
! Port Impedance         50               0                50               0                
4.79925                        0.999940889142109 -9.18426030471732 0.0108722419780668 -99.1801308062409 0.0108722419770364 -99.1801308060199 0.999940889317848 -9.1759957023731 
! Gamma         0                0                0                0                
! Port Impedance         50               0                50               0                
4.819                          0.99993946828193 -9.22801487982461 0.01100222324767 -99.2239694044546 0.0110022232466209 -99.223969404266 0.999939468433009 -9.21991913648571 
! Gamma         0                0                0                0                
! Port Impedance         50               0                50               0                
4.83875                        0.999938007244315 -9.27190353164323 0.011134296839068 -99.267944339401 0.0111342968380016 -99.2679443392447 0.999938007370463 -9.26398116698246 
! Gamma         0                0                0                0                
! Port Impedance         50               0                50               0                
4.8585                         0.999936504653383 -9.31592909383181 0.0112685110557267 -99.312058493163 0.0112685110546442 -99.3120584930387 0.999936504754402 -9.30818472212617 
! Gamma         0                0                0                0                
! Port Impedance         50               0                50               0                
4.87825                        0.999934959077248 -9.36009448231801 0.0114049156473624 -99.3563148314325 0.0114049156462652 -99.3563148313399 0.999934959153007 -9.3525328151892 
! Gamma         0                0                0                0                
! Port Impedance         50               0                50               0                
4.898                          0.99993336902534 -9.40440269836515 0.0115435618641788 -99.4007164066281 0.0115435618630682 -99.4007164065668 0.999933369075778 -9.39702854762235 
! Gamma         0                0                0                0                
! Port Impedance         50               0                50               0                
4.91775                        0.999931732945585 -9.44885683177748 0.0116845025135558 -99.4452663611534 0.0116845025124333 -99.445266361123 0.999931732970709 -9.44167511236686 
! Gamma         0                0                0                0                
! Port Impedance         50               0                50               0                
4.9375                         0.999930049221425 -9.49346006425101 0.0118277920193209 -99.4899679308035 0.0118277920181879 -99.4899679308035 0.999930049221311 -9.48647579731697 
! Gamma         0                0                0                0                
! Port Impedance         50               0                50               0                
4.95725                        0.999928316168673 -9.53821567287818 0.01197348648374 -99.534824448328 0.0119734864825979 -99.5348244483577 0.999928316143465 -9.53143398894138 
! Gamma         0                0                0                0                
! Port Impedance         50               0                50               0                
4.977                          0.99992653203219 -9.58312703381427 0.0121216437523765 -99.5798393471579 0.0121216437512268 -99.5798393472167 0.999926531982099 -9.57655317607184 
! Gamma         0                0                0                0                
! Port Impedance         50               0                50               0                
4.99675                        0.999924694982373 -9.62819762611451 0.0122723234819719 -99.6250161653068 0.0122723234808159 -99.6250161653939 0.999924694907675 -9.62183695386817 
! Gamma         0                0                0                0                
! Port Impedance         50               0                50               0                
5.0165                         0.999922803111441 -9.67343103575129 0.0124255872115155 -99.6703585494548 0.0124255872103548 -99.6703585495693 0.999922803012479 -9.66728902796938 
! Gamma         0                0                0                0                
! Port Impedance         50               0                50               0                
5.03625                        0.999920854429511 -9.71883095982126 0.0125814984366787 -99.7158702592251 0.0125814984355148 -99.7158702593662 0.999920854306691 -9.71291321884097 
! Gamma         0                0                0                0                
! Port Impedance         50               0                50               0                
5.056                          0.999918846860437 -9.76440121095306 0.0127401226877997 -99.7615551716657 0.0127401226866341 -99.7615551718324 0.999918846714232 -9.75871346632962 
! Gamma         0                0                0                0                
! Port Impedance         50               0                50               0                
5.07575                        0.99991677823742 -9.81014572192676 0.0129015276116199 -99.807417285945 0.0129015276104541 -99.8074172861363 0.999916778068362 -9.80469383443656 
! Gamma         0                0                0                0                
! Port Impedance         50               0                50               0                
5.0955                         0.99991464629834 -9.85606855051709 0.0130657830569824 -99.8534607282759 0.0130657830558179 -99.8534607284907 0.999914646107027 -9.85085851632236 
! Gamma         0                0                0                0                
! Port Impedance         50               0                50               0                
5.11525                        0.999912448680828 -9.90217388457321 0.0132329611647191 -99.8996897570798 0.0132329611635575 -99.899689757317 0.999912448467917 -9.89721183955596 
! Gamma         0                0                0                0                
! Port Impedance         50               0                50               0                
5.135                          0.999910182917032 -9.94846604734858 0.0134031364619668 -99.9461087684056 0.0134031364608097 -99.946108768664 0.99991018268324 -9.94375827162223 
! Gamma         0                0                0                0                
! Port Impedance         50               0                50               0                
5.15475                        0.999907846428071 -9.99494950309534 0.0135763859611689 -99.9927223016165 0.0135763859600178 -99.9927223018951 0.999907846174173 -9.990502425703  
! Gamma         0                0                0                0                
! Port Impedance         50               0                50               0                
5.1745                         0.999905436518148 -10.041628862939 0.0137527892640366 -100.039535045363 0.0137527892628932 -100.03953504566 0.999905436244979 -10.0374490667474 
! Gamma         0                0                0                0                
! Port Impedance         50               0                50               0                
5.19425                        0.999902950368304 -10.0885088910493 0.0139324286707612 -100.086551843856 0.0139324286696271 -100.086551844171 0.999902950076753 -10.0846031178487 
! Gamma         0                0                0                0                
! Port Impedance         50               0                50               0                
5.214                          0.999900385029789 -10.1355945111256 0.0141153892947902 -100.133777703462 0.0141153892936669 -100.133777703793 0.999900384720801 -10.1319696669459 
! Gamma         0                0                0                0                
! Port Impedance         50               0                50               0                
5.23375                        0.999897737417008 -10.1828908132151 0.0143017591834991 -100.18121779963 0.0143017591823883 -100.181217799976 0.999897737091582 -10.1795539738692 
! Gamma         0                0                0                0                
! Port Impedance         50               0                50               0                
5.2535                         0.999895004300037 -10.2304030608845 0.0144916294451168 -100.228877484188 0.0144916294440202 -100.228877484548 0.999895003959223 -10.2273614777508 
! Gamma         0                0                0                0                
! Port Impedance         50               0                50               0                
5.27325                        0.999892182296653 -10.2781366987654 0.0146850943822848 -100.276762293013 0.014685094381204 -100.276762293385 0.999892181941552 -10.2753978048224 
! Gamma         0                0                0                0                
! Port Impedance         50               0                50               0                
5.293                          0.999889267863859 -10.3260973604987 0.0148822516326573 -100.324877954104 0.0148822516315939 -100.324877954487 0.999889267495621 -10.3236687766241 
! Gamma         0                0                0                0                
! Port Impedance         50               0                50               0                
5.31275                        0.999886257288863 -10.3742908771006 0.0150832023169805 -100.373230396093 0.0150832023159363 -100.373230396484 0.999886256908688 -10.3721804186492 
! Gamma         0                0                0                0                
! Port Impedance         50               0                50               0                
5.3325                         0.999883146679469 -10.4227232857773 0.015288051195118 -100.421825757199 0.0152880511940946 -100.421825757599 0.999883146288597 -10.4209389694537 
! Gamma         0                0                0                0                
! Port Impedance         50               0                50               0                
5.35225                        0.999879931953831 -10.4714008392173 0.0154969068305239 -100.470670394685 0.015496906829523 -100.470670395091 0.99987993155355 -10.4699508902582 
! Gamma         0                0                0                0                
! Port Impedance         50               0                50               0                
5.372                          0.999876608829536 -10.5203300153913 0.0157098817637024 -100.519770894813 0.0157098817627256 -100.519770895224 0.999876608421176 -10.5192228750743 
! Gamma         0                0                0                0                
! Port Impedance         50               0                50               0                
5.39175                        0.999873172811959 -10.5695175278917 0.0159270926952311 -100.569134083359 0.0159270926942801 -100.569134083773 0.999873172396888 -10.5687618613898 
! Gamma         0                0                0                0                
! Port Impedance         50               0                50               0                
5.4115                         0.999869619181821 -10.6189703368484 0.0161486606789685 -100.618767036711 0.0161486606780451 -100.618767037127 0.999869618761446 -10.6185750414481 
! Gamma         0                0                0                0                
! Port Impedance         50               0                50               0                
5.43125                        0.999865942981912 -10.6686956604564 0.0163747113261136 -100.668677093588 0.0163747113252194 -100.668677094004 0.999865942557675 -10.6686698741611 
! Gamma         0                0                0                0                
! Port Impedance         50               0                50               0                
5.451                          0.999862139002898 -10.7187009871583 0.0166053750208332 -100.718871867426 0.0166053750199699 -100.718871867841 0.999862138576276 -10.7190540976972 
! Gamma         0                0                0                0                
! Port Impedance         50               0                50               0                
5.47075                        0.999858201768145 -10.7689940885227 0.0168407871482308 -100.769359259472 0.0168407871474  -100.769359259885 0.999858201340645 -10.7697357427906 
! Gamma         0                0                0                0                
! Port Impedance         50               0                50               0                
5.4905                         0.999854125517477 -10.8195830328678 0.0170810883354868 -100.820147472633 0.0170810883346903 -100.820147473042 0.999854125090637 -10.8207231468188 
! Gamma         0                0                0                0                
! Port Impedance         50               0                50               0                
5.51025                        0.999849904189798 -10.8704761996791 0.0173264247070674 -100.871245026136 0.0173264247063069 -100.871245026539 0.999849903765181 -10.8720249687017 
! Gamma         0                0                0                0                
! Port Impedance         50               0                50               0                
5.53                           0.999845531404464 -10.9216822948771 0.0175769481549682 -100.922660771048 0.0175769481542453 -100.922660771444 0.999845530983658 -10.9236502046793 
! Gamma         0                0                0                0                
! Port Impedance         50               0                50               0                
5.54975                        0.99984100044132 -10.9732103669931 0.0178328166250343 -100.974403906724 0.0178328166243506 -100.974403907112 0.999841000025935 -10.9756082050271 
! Gamma         0                0                0                0                
! Port Impedance         50               0                50               0                