! Touchstone file exported from HFSS 2025.2.0
!        File:           D:/lfl/Documents/Ansoft/06082026_005pf.aedt
!        Generated:      01:29:57 PM Jul 18, 2026
!        Design:         cpw_7mm
!        Project:        06082026_005pf
!        Setup:          Setup1
!        Solution:       Sweep
!
# GHz S MA R 50.000000
! Terminal data exported
! Port[1] = 1
! Port[2] = 2
3.95                           0.999975556934175 -7.29258842547973 0.00699181908977172 -97.2955158053111 0.00699181909006789 -97.2955158053111 0.999975556934175 -7.29844318514253 
! Gamma         0                0                0                0                
! Port Impedance         50               0                50               0                
3.96975                        0.999975081200883 -7.33183242088387 0.00706107046874931 -97.3348076500977 0.00706107046903418 -97.3348076500967 0.999975081895379 -7.33779473040211 
! Gamma         0                0                0                0                
! Port Impedance         50               0                50               0                
3.9895                         0.999974594731856 -7.37113310322097 0.00713108571388769 -97.3741573420207 0.00713108571416122 -97.3741573420188 0.999974596089337 -7.37720455401353 
! Gamma         0                0                0                0                
! Port Impedance         50               0                50               0                
4.00925                        0.999974097275556 -7.41049127767402 0.00720187745113725 -97.413565689743 0.00720187745139937 -97.4135656897402 0.999974099264507 -7.41667348366831 
! Gamma         0                0                0                0                
! Port Impedance         50               0                50               0                
4.029                          0.999973588573441 -7.44990776436839 0.00727345856313726 -97.4530335170898 0.00727345856338792 -97.4530335170862 0.999973591162354 -7.45620236241737 
! Gamma         0                0                0                0                
! Port Impedance         50               0                50               0                
4.04875                        0.999973068359719 -7.48938339874674 0.00734584219577427 -97.4925616634279 0.00734584219601344 -97.4925616634236 0.999973071517108 -7.49579204905648 
! Gamma         0                0                0                0                
! Port Impedance         50               0                50               0                
4.0685                         0.999972536361111 -7.52891903195537 0.00741904176494017 -97.5321509840574 0.0074190417651678 -97.5321509840524 0.99997254005553 -7.53544341852329 
! Gamma         0                0                0                0                
! Port Impedance         50               0                50               0                
4.08825                        0.999971992296597 -7.56851553124209 0.00749307096349704 -97.5718023506143 0.00749307096371309 -97.5718023506086 0.99997199649665 -7.57515736230647 
! Gamma         0                0                0                0                
! Port Impedance         50               0                50               0                
4.108                          0.999971435877148 -7.60817378036653 0.00756794376845639 -97.6115166514862 0.00756794376866084 -97.61151665148  0.99997144055151 -7.6149347888673 
! Gamma         0                0                0                0                
! Port Impedance         50               0                50               0                
4.12775                        0.999970866805457 -7.64789468002277 0.00764367444838033 -97.6512947922409 0.00764367444857315 -97.6512947922343 0.999970871922885 -7.65477662407428 
! Gamma         0                0                0                0                
! Port Impedance         50               0                50               0                
4.1475                         0.99997028477565 -7.68767914827524 0.00772027757101283 -97.6911376960678 0.007720277571194 -97.6911376960607 0.999970290305003 -7.69468381165105 
! Gamma         0                0                0                0                
! Port Impedance         50               0                50               0                
4.16725                        0.999969689472993 -7.72752812100802 0.00779776801114939 -97.7310463042332 0.00779776801131889 -97.7310463042256 0.999969695383246 -7.73465731363836 
! Gamma         0                0                0                0                
! Port Impedance         50               0                50               0                
4.187                          0.999969080573585 -7.76744255238818 0.00787616095875391 -97.7710215765498 0.00787616095891172 -97.771021576542 0.999969086833846 -7.77469811087029 
! Gamma         0                0                0                0                
! Port Impedance         50               0                50               0                
4.20675                        0.999968457744036 -7.80742341534372 0.00795547192733181 -97.8110644918617 0.00795547192747793 -97.8110644918536 0.999968464323563 -7.81480720346557 
! Gamma         0                0                0                0                
! Port Impedance         50               0                50               0                
4.2265                         0.999967820641137 -7.84747170205654 0.00803571676256892 -97.8511760485435 0.00803571676270335 -97.8511760485352 0.999967827509357 -7.85498561133426 
! Gamma         0                0                0                0                
! Port Impedance         50               0                50               0                
4.24625                        0.999967168911515 -7.88758842447099 0.00811691165124605 -97.8913572650163 0.00811691165136879 -97.8913572650077 0.999967176038039 -7.89523437470061 
! Gamma         0                0                0                0                
! Port Impedance         50               0                50               0                
4.266                          0.999966502191268 -7.92777461481876 0.00819907313043942 -97.9316091802795 0.00819907313055048 -97.9316091802708 0.999966509545912 -7.93555455464252 
! Gamma         0                0                0                0                
! Port Impedance         50               0                50               0                
4.28575                        0.9999658201056  -7.96803132616049 0.00828221809701792 -97.9719328544602 0.00828221809711732 -97.9719328544515 0.999965827658402 -7.97594723364832 
! Gamma         0                0                0                0                
! Port Impedance         50               0                50               0                
4.3055                         0.999965122268426 -8.00835963294491 0.00836636381744821 -98.0123293693804 0.00836636381753596 -98.0123293693716 0.999965129989664 -8.01641351619153 
! Gamma         0                0                0                0                
! Port Impedance         50               0                50               0                
4.32525                        0.999964408281968 -8.04876063158604 0.00845152793791947 -98.0527998291416 0.00845152793799561 -98.0527998291328 0.99996441614218 -8.05695452932419 
! Gamma         0                0                0                0                
! Port Impedance         50               0                50               0                
4.345                          0.999963677736334 -8.08923544105932 0.00853772849480007 -98.0933453607302 0.00853772849486462 -98.0933453607213 0.999963685706339 -8.09757142328959 
! Gamma         0                0                0                0                
! Port Impedance         50               0                50               0                
4.36475                        0.999962930209081 -8.12978520351711 0.00862498392543865 -98.1339671146408 0.00862498392549164 -98.133967114632 0.999962938259996 -8.13826537215506 
! Gamma         0                0                0                0                
! Port Impedance         50               0                50               0                
4.3845                         0.999962165264755 -8.17041108492464 0.00871331307932334 -98.1746662655221 0.00871331307936483 -98.1746662655134 0.999962173368018 -8.17903757446562 
! Gamma         0                0                0                0                
! Port Impedance         50               0                50               0                
4.40425                        0.999961382454418 -8.21111427571699 0.00880273522961261 -98.2154440128426 0.00880273522964264 -98.2154440128339 0.999961390581807 -8.21988925391931 
! Gamma         0                0                0                0                
! Port Impedance         50               0                50               0                
4.424                          0.999960581315151 -8.25189599147792 0.00889327008505254 -98.2563015815791 0.00889327008507117 -98.2563015815706 0.999960589438806 -8.26082166006499 
! Gamma         0                0                0                0                
! Port Impedance         50               0                50               0                
4.44375                        0.999959761369539 -8.2927574736415 0.00898493780229558 -98.297240222929 0.00898493780230287 -98.2972402229206 0.999959769461983 -8.30183606902366 
! Gamma         0                0                0                0                
! Port Impedance         50               0                50               0                
4.4635                         0.99995892212513 -8.33369999021745 0.00907775899863667 -98.3382612150452 0.00907775899863269 -98.338261215037 0.999958930159291 -8.34293378423394 
! Gamma         0                0                0                0                
! Port Impedance         50               0                50               0                
4.48325                        0.999958063073876 -8.37472483654101 0.00917175476518327 -98.3793658637972 0.0091717547651681 -98.3793658637893 0.99995807102311 -8.38411613722293 
! Gamma         0                0                0                0                
! Port Impedance         50               0                50               0                
4.503                          0.99995718369155 -8.41583333604839 0.00926694668047675 -98.4205555035577 0.00926694668045047 -98.42055550355  0.999957191529663 -8.42538448840338 
! Gamma         0                0                0                0                
! Port Impedance         50               0                50               0                
4.52275                        0.99995628343713 -8.45702684107889 0.00936335682458309 -98.4618314980161 0.00936335682454581 -98.4618314980087 0.999956291138403 -8.46674022789816 
! Gamma         0                0                0                0                
! Port Impedance         50               0                50               0                
4.5425                         0.999955361752172 -8.49830673370462 0.00946100779367205 -98.5031952410201 0.00946100779362385 -98.5031952410129 0.999955369291383 -8.5081847763932 
! Gamma         0                0                0                0                
! Port Impedance         50               0                50               0                
4.56225                        0.999954418060137 -8.53967442658911 0.00955992271510444 -98.5446481574469 0.00955992271504543 -98.54464815744  0.999954425412585 -8.54971958602007 
! Gamma         0                0                0                0                
! Port Impedance         50               0                50               0                
4.582                          0.999953451765706 -8.58113136387581 0.00966012526304848 -98.5861917041044 0.00966012526297878 -98.5861917040978 0.999953458907237 -8.59134614126934 
! Gamma         0                0                0                0                
! Port Impedance         50               0                50               0                
4.60175                        0.999952462254051 -8.62267902210792 0.00976163967464686 -98.6278273706642 0.00976163967456659 -98.6278273706579 0.999952469161084 -8.63306595993604 
! Gamma         0                0                0                0                
! Port Impedance         50               0                50               0                
4.6215                         0.999951448890086 -8.66431891118056 0.00986449076675728 -98.6695566806276 0.00986449076666657 -98.6695566806217 0.999951455539637 -8.67488059409853 
! Gamma         0                0                0                0                
! Port Impedance         50               0                50               0                
4.64125                        0.999950411017677 -8.70605257532699 0.00996870395329039 -98.7113811923262 0.00996870395318939 -98.7113811923206 0.999950417387385 -8.71679163113222 
! Gamma         0                0                0                0                
! Port Impedance         50               0                50               0                
4.661                          0.999949347958817 -8.7478815941399 0.0100743052631701 -98.7533024999576 0.0100743052630589 -98.7533024999523 0.999949354026972 -8.7588006947594 
! Gamma         0                0                0                0                
! Port Impedance         50               0                50               0                
4.68075                        0.99994825901277 -8.78980758362962 0.0101813213589424 -98.7953222346591 0.0101813213588212 -98.7953222346542 0.999948264758339 -8.80090944613709 
! Gamma         0                0                0                0                
! Port Impedance         50               0                50               0                
4.7005                         0.999947143455168 -8.83183219732052 0.0102897795560601 -98.83744206562  0.0102897795559291 -98.8374420656155 0.999947148857828 -8.84311958498398 
! Gamma         0                0                0                0                
! Port Impedance         50               0                50               0                
4.72025                        0.99994600053708 -8.87395712738744 0.0103997078428729 -98.8796637012342 0.0103997078427323 -98.8796637012301 0.999946005577237 -8.88543285074867 
! Gamma         0                0                0                0                
! Port Impedance         50               0                50               0                
4.74                           0.999944829484023 -8.91618410583369 0.0105111349013516 -98.9219888902954 0.0105111349012015 -98.9219888902916 0.999944834142849 -8.92785102382063 
! Gamma         0                0                0                0                
! Port Impedance         50               0                50               0                
4.75975                        0.999943629494938 -8.95851490571254 0.01062409012858 -98.964419423236 0.0106240901284207 -98.9644194232327 0.999943633754399 -8.97037592678577 
! Gamma         0                0                0                0                
! Port Impedance         50               0                50               0                
4.7795                         0.999942399741119 -9.00095134239404 0.0107386036590461 -99.0069571334125 0.0107386036588776 -99.0069571334096 0.999942403584003 -9.01300942572868 
! Gamma         0                0                0                0                
! Port Impedance         50               0                50               0                
4.79925                        0.999941139365086 -9.04349527487914 0.0108547063877683 -99.0496038984383 0.010854706387591 -99.0496038984357 0.999941142775036 -9.0557534315835 
! Gamma         0                0                0                0                
! Port Impedance         50               0                50               0                
4.819                          0.999939847479413 -9.08614860716316 0.0109724299942938 -99.0923616415667 0.0109724299941079 -99.0923616415645 0.999939850440958 -9.09860990153549 
! Gamma         0                0                0                0                
! Port Impedance         50               0                50               0                
4.83875                        0.999938523165498 -9.12891328965092 0.0110918069676065 -99.1352323331268 0.0110918069674122 -99.135232333125 0.999938525664085 -9.14158084047572 
! Gamma         0                0                0                0                
! Port Impedance         50               0                50               0                
4.8585                         0.999937165472269 -9.17179132062562 0.0112128706319858 -99.1782179920133 0.0112128706317833 -99.1782179920118 0.999937167494298 -9.18466830251097 
! Gamma         0                0                0                0                
! Port Impedance         50               0                50               0                
4.87825                        0.999935773414845 -9.21478474777405 0.0113356551738582 -99.2213206872334 0.0113356551736478 -99.2213206872323 0.999935774947698 -9.22787439253165 
! Gamma         0                0                0                0                
! Port Impedance         50               0                50               0                
4.898                          0.999934345973115 -9.25789566977062 0.0114601956696877 -99.2645425395141 0.0114601956694697 -99.2645425395134 0.999934347005195 -9.27120126784006 
! Gamma         0                0                0                0                
! Port Impedance         50               0                50               0                
4.91775                        0.999932882090257 -9.30112623792283 0.0115865281149505 -99.3078857229709 0.0115865281147251 -99.3078857229706 0.999932882611022 -9.31465113984184 
! Gamma         0                0                0                0                
! Port Impedance         50               0                50               0                
4.9375                         0.999931380671191 -9.34447865788101 0.0117146894542441 -99.3513524668423 0.0117146894540117 -99.3513524668423 0.99993138067119 -9.35822627580357 
! Gamma         0                0                0                0                
! Port Impedance         50               0                50               0                
4.95725                        0.999929840580949 -9.38795519141532 0.0118447176125839 -99.3949450572921 0.0118447176123447 -99.3949450572924 0.999929840051857 -9.40192900067941 
! Gamma         0                0                0                0                
! Port Impedance         50               0                50               0                
4.977                          0.999928260642966 -9.43155815826311 0.0119766515279403 -99.4386658392832 0.0119766515276947 -99.4386658392839 0.999928259577624 -9.44576169901007 
! Gamma         0                0                0                0                
! Port Impedance         50               0                50               0                
4.99675                        0.999926639637294 -9.47528993804976 0.0121105311850761 -99.4825172185263 0.0121105311848244 -99.4825172185273 0.999926638029746 -9.48972681689746 
! Gamma         0                0                0                0                
! Port Impedance         50               0                50               0                
5.0165                         0.999924976298718 -9.51915297228679 0.0122463976507432 -99.5265016635062 0.0122463976504858 -99.5265016635075 0.999924974144251 -9.53382686405854 
! Gamma         0                0                0                0                
! Port Impedance         50               0                50               0                
5.03625                        0.999923269314786 -9.56314976645045 0.0123842931103045 -99.5706217075902 0.0123842931100417 -99.5706217075918 0.99992326660997 -9.57806441596216 
! Gamma         0                0                0                0                
! Port Impedance         50               0                50               0                
5.056                          0.99992151732374 -9.60728289214501 0.0125242609058471 -99.6148799512223 0.0125242609055792 -99.6148799512243 0.999921514066469 -9.62244211605271 
! Gamma         0                0                0                0                
! Port Impedance         50               0                50               0                
5.07575                        0.999919718912338 -9.65155498935451 0.0126663455758594 -99.6592790642073 0.0126663455755869 -99.6592790642095 0.999919715101873 -9.66696267806494 
! Gamma         0                0                0                0                
! Port Impedance         50               0                50               0                
5.0955                         0.999917872613568 -9.69596876878739 0.0128105928965466 -99.7038217880885 0.0128105928962698 -99.7038217880909 0.999917868250579 -9.71162888843409 
! Gamma         0                0                0                0                
! Port Impedance         50               0                50               0                
5.11525                        0.99991597690425 -9.74052701431843 0.0129570499248642 -99.7485109386244 0.0129570499245836 -99.7485109386271 0.99991597199086 -9.75644360880614 
! Gamma         0                0                0                0                
! Port Impedance         50               0                50               0                
5.135                          0.999914030202505 -9.78523258553282 0.0131057650433537 -99.7933494083694 0.0131057650430697 -99.7933494083724 0.999914024742339 -9.80140977865303 
! Gamma         0                0                0                0                
! Port Impedance         50               0                50               0                
5.15475                        0.999912030865107 -9.83008842037724 0.0132567880068683 -99.8383401693623 0.0132567880065813 -99.8383401693655 0.999912024863332 -9.8465304179979 
! Gamma         0                0                0                0                
! Port Impedance         50               0                50               0                
5.1745                         0.999909977184681 -9.87509753792346 0.0134101699912835 -99.8834862759291 0.013410169990994 -99.8834862759325 0.999909970648058 -9.89180863025593 
! Gamma         0                0                0                0                
! Port Impedance         50               0                50               0                
5.19425                        0.999907867386769 -9.92026304124987 0.0135659636442895 -99.9287908676055 0.013565963643998 -99.928790867609 0.9999078603237  -9.93724760519653 
! Gamma         0                0                0                0                
! Port Impedance         50               0                50               0                
5.214                          0.999905699626731 -9.96558812044696 0.0137242231383724 -99.9742571721851 0.0137242231380794 -99.9742571721888 0.999905692047312 -9.98285062203282 
! Gamma         0                0                0                0                
! Port Impedance         50               0                50               0                
5.23375                        0.999903471986491 -10.011076055753 0.0138850042260927 -100.019888508899 0.0138850042257987 -100.019888508903 0.999903463902557 -10.0286210526451 
! Gamma         0                0                0                0                
! Port Impedance         50               0                50               0                
5.2535                         0.999901182471096 -10.0567302208266 0.0140483642977796 -100.065688291737 0.014048364297485 -100.065688291741 0.99990117389628 -10.0745623649448 
! Gamma         0                0                0                0                
! Port Impedance         50               0                50               0                
5.27325                        0.999898829005105 -10.1025540861629 0.0142143624417636 -100.111660032907 0.0142143624414691 -100.111660032911 0.999898819954889 -10.1206781263867 
! Gamma         0                0                0                0                
! Port Impedance         50               0                50               0                
5.293                          0.999896409428771 -10.1485512226618 0.014383059507281 -100.157807346459 0.014383059506987 -100.157807346464 0.99989639992054 -10.166972007636 
! Gamma         0                0                0                0                
! Port Impedance         50               0                50               0                
5.31275                        0.999893921494021 -10.1947253053539 0.0145545181701859 -100.204133952063 0.0145545181698932 -100.204133952067 0.999893911547122 -10.2134477863998 
! Gamma         0                0                0                0                
! Port Impedance         50               0                50               0                
5.3325                         0.999891362860209 -10.2410801172958 0.0147288030016209 -100.250643678955 0.0147288030013299 -100.250643678959 0.999891352496007 -10.2601093514303 
! Gamma         0                0                0                0                
! Port Impedance         50               0                50               0                
5.35225                        0.999888731089641 -10.2876195536403 0.0149059805397992 -100.297340470068 0.0149059805395106 -100.297340470072 0.999888720331582 -10.3069607067092 
! Gamma         0                0                0                0                
! Port Impedance         50               0                50               0                
5.372                          0.999886023642848 -10.3343476258929 0.0150861193650666 -100.34422838635 0.0150861193647811 -100.344228386354 0.999886012516517 -10.3540059758241 
! Gamma         0                0                0                0                
! Port Impedance         50               0                50               0                
5.39175                        0.999883237873585 -10.3812684663646 0.0152692901784178 -100.391311611276 0.015269290178136 -100.39131161128 0.999883226406775 -10.4012494065443 
! Gamma         0                0                0                0                
! Port Impedance         50               0                50               0                
5.4115                         0.999880371023569 -10.4283863328298 0.0154555658836544 -100.438594455572 0.0154555658833771 -100.438594455577 0.999880359246337 -10.4486953756108 
! Gamma         0                0                0                0                
! Port Impedance         50               0                50               0                
5.43125                        0.999877420216886 -10.4757056134031 0.0156450216733829 -100.486081362164 0.0156450216731107 -100.486081362168 0.999877408161629 -10.4963483937481 
! Gamma         0                0                0                0                
! Port Impedance         50               0                50               0                
5.451                          0.99987438245411 -10.5232308316449 0.0158377351190629 -100.53377691135 0.0158377351187965 -100.533776911355 0.999874370155626 -10.5442131109137 
! Gamma         0                0                0                0                
! Port Impedance         50               0                50               0                
5.47075                        0.999871254606051 -10.5709666519092 0.0160337862653317 -100.581685826228 0.0160337862650719 -100.581685826232 0.999871242101617 -10.5922943217951 
! Gamma         0                0                0                0                
! Port Impedance         50               0                50               0                
5.4905                         0.999868033407163 -10.6189178849475 0.0162332577288406 -100.629812978373 0.0162332577285881 -100.629812978377 0.999868020736603 -10.6405969715708 
! Gamma         0                0                0                0                
! Port Impedance         50               0                50               0                
5.51025                        0.999864715448552 -10.6670894937828 0.0164362348018602 -100.678163393799 0.016436234801616 -100.678163393803 0.999864702654314 -10.6891261619485 
! Gamma         0                0                0                0                
! Port Impedance         50               0                50               0                
5.53                           0.999861297170572 -10.7154865998688 0.0166428055609224 -100.726742259201 0.0166428055606872 -100.726742259205 0.999861284297804 -10.737887157497 
! Gamma         0                0                0                0                
! Port Impedance         50               0                50               0                
5.54975                        0.99985777485498 -10.7641144895514 0.0168530609807877 -100.775554928509 0.0168530609805624 -100.775554928513 0.999857761951611 -10.7868853922883 
! Gamma         0                0                0                0                
! Port Impedance         50               0                50               0                